V -t * -v 1.0a5 -a 0
A -t * -n 1 -p 0 -o 0x7fffffff -c 30 -a 1
A -t * -h 1 -m 1073741823 -s 0
n -t * -a 0 -s 0 -S UP -v circle -c black -i black
n -t * -a 1 -s 1 -S UP -v circle -c black -i black
n -t * -a 2 -s 2 -S UP -v circle -c black -i black
n -t * -a 3 -s 3 -S UP -v circle -c black -i black
n -t * -a 4 -s 4 -S UP -v circle -c black -i black
n -t * -a 5 -s 5 -S UP -v circle -c black -i black
n -t * -a 6 -s 6 -S UP -v circle -c black -i black
n -t * -a 7 -s 7 -S UP -v circle -c black -i black
n -t * -a 8 -s 8 -S UP -v circle -c black -i black
n -t * -a 9 -s 9 -S UP -v circle -c black -i black
n -t * -a 10 -s 10 -S UP -v circle -c black -i black
n -t * -a 11 -s 11 -S UP -v circle -c black -i black
n -t * -a 12 -s 12 -S UP -v circle -c black -i black
n -t * -a 13 -s 13 -S UP -v circle -c black -i black
n -t * -a 14 -s 14 -S UP -v circle -c black -i black
n -t * -a 15 -s 15 -S UP -v circle -c black -i black
l -t * -s 0 -d 1 -S UP -r 1000000 -D 0.01 -c black
l -t * -s 1 -d 2 -S UP -r 1000000 -D 0.01 -c black
l -t * -s 2 -d 3 -S UP -r 1000000 -D 0.01 -c black
l -t * -s 3 -d 0 -S UP -r 1000000 -D 0.01 -c black
l -t * -s 4 -d 5 -S UP -r 1000000 -D 0.01 -c black
l -t * -s 5 -d 6 -S UP -r 1000000 -D 0.01 -c black
l -t * -s 6 -d 7 -S UP -r 1000000 -D 0.01 -c black
l -t * -s 7 -d 4 -S UP -r 1000000 -D 0.01 -c black
l -t * -s 8 -d 9 -S UP -r 1000000 -D 0.01 -c black
l -t * -s 9 -d 10 -S UP -r 1000000 -D 0.01 -c black
l -t * -s 10 -d 11 -S UP -r 1000000 -D 0.01 -c black
l -t * -s 11 -d 8 -S UP -r 1000000 -D 0.01 -c black
l -t * -s 12 -d 13 -S UP -r 1000000 -D 0.01 -c black
l -t * -s 13 -d 14 -S UP -r 1000000 -D 0.01 -c black
l -t * -s 14 -d 15 -S UP -r 1000000 -D 0.01 -c black
l -t * -s 15 -d 12 -S UP -r 1000000 -D 0.01 -c black
l -t * -s 0 -d 4 -S UP -r 1000000 -D 0.01 -c black
l -t * -s 1 -d 5 -S UP -r 1000000 -D 0.01 -c black
l -t * -s 2 -d 6 -S UP -r 1000000 -D 0.01 -c black
l -t * -s 3 -d 7 -S UP -r 1000000 -D 0.01 -c black
l -t * -s 4 -d 8 -S UP -r 1000000 -D 0.01 -c black
l -t * -s 5 -d 9 -S UP -r 1000000 -D 0.01 -c black
l -t * -s 6 -d 10 -S UP -r 1000000 -D 0.01 -c black
l -t * -s 7 -d 11 -S UP -r 1000000 -D 0.01 -c black
l -t * -s 8 -d 12 -S UP -r 1000000 -D 0.01 -c black
l -t * -s 9 -d 13 -S UP -r 1000000 -D 0.01 -c black
l -t * -s 10 -d 14 -S UP -r 1000000 -D 0.01 -c black
l -t * -s 11 -d 15 -S UP -r 1000000 -D 0.01 -c black
l -t * -s 12 -d 0 -S UP -r 1000000 -D 0.01 -c black
l -t * -s 13 -d 1 -S UP -r 1000000 -D 0.01 -c black
l -t * -s 14 -d 2 -S UP -r 1000000 -D 0.01 -c black
l -t * -s 15 -d 3 -S UP -r 1000000 -D 0.01 -c black
+ -t 0.1 -s 0 -d 3 -p cbr -e 500 -c 0 -i 0 -a 0 -x {0.0 15.0 0 ------- null}
- -t 0.1 -s 0 -d 3 -p cbr -e 500 -c 0 -i 0 -a 0 -x {0.0 15.0 0 ------- null}
h -t 0.1 -s 0 -d 3 -p cbr -e 500 -c 0 -i 0 -a 0 -x {0.0 15.0 -1 ------- null}
+ -t 0.108928571428571 -s 0 -d 3 -p cbr -e 500 -c 0 -i 1 -a 0 -x {0.0 15.0 1 ------- null}
- -t 0.108928571428571 -s 0 -d 3 -p cbr -e 500 -c 0 -i 1 -a 0 -x {0.0 15.0 1 ------- null}
h -t 0.108928571428571 -s 0 -d 3 -p cbr -e 500 -c 0 -i 1 -a 0 -x {0.0 15.0 -1 ------- null}
r -t 0.114 -s 0 -d 3 -p cbr -e 500 -c 0 -i 0 -a 0 -x {0.0 15.0 0 ------- null}
+ -t 0.114 -s 3 -d 15 -p cbr -e 500 -c 0 -i 0 -a 0 -x {0.0 15.0 0 ------- null}
- -t 0.114 -s 3 -d 15 -p cbr -e 500 -c 0 -i 0 -a 0 -x {0.0 15.0 0 ------- null}
h -t 0.114 -s 3 -d 15 -p cbr -e 500 -c 0 -i 0 -a 0 -x {0.0 15.0 -1 ------- null}
+ -t 0.117857142857143 -s 0 -d 3 -p cbr -e 500 -c 0 -i 2 -a 0 -x {0.0 15.0 2 ------- null}
- -t 0.117857142857143 -s 0 -d 3 -p cbr -e 500 -c 0 -i 2 -a 0 -x {0.0 15.0 2 ------- null}
h -t 0.117857142857143 -s 0 -d 3 -p cbr -e 500 -c 0 -i 2 -a 0 -x {0.0 15.0 -1 ------- null}
r -t 0.122928571428571 -s 0 -d 3 -p cbr -e 500 -c 0 -i 1 -a 0 -x {0.0 15.0 1 ------- null}
+ -t 0.122928571428571 -s 3 -d 15 -p cbr -e 500 -c 0 -i 1 -a 0 -x {0.0 15.0 1 ------- null}
- -t 0.122928571428571 -s 3 -d 15 -p cbr -e 500 -c 0 -i 1 -a 0 -x {0.0 15.0 1 ------- null}
h -t 0.122928571428571 -s 3 -d 15 -p cbr -e 500 -c 0 -i 1 -a 0 -x {0.0 15.0 -1 ------- null}
+ -t 0.126785714285714 -s 0 -d 3 -p cbr -e 500 -c 0 -i 3 -a 0 -x {0.0 15.0 3 ------- null}
- -t 0.126785714285714 -s 0 -d 3 -p cbr -e 500 -c 0 -i 3 -a 0 -x {0.0 15.0 3 ------- null}
h -t 0.126785714285714 -s 0 -d 3 -p cbr -e 500 -c 0 -i 3 -a 0 -x {0.0 15.0 -1 ------- null}
r -t 0.128 -s 3 -d 15 -p cbr -e 500 -c 0 -i 0 -a 0 -x {0.0 15.0 0 ------- null}
r -t 0.131857142857143 -s 0 -d 3 -p cbr -e 500 -c 0 -i 2 -a 0 -x {0.0 15.0 2 ------- null}
+ -t 0.131857142857143 -s 3 -d 15 -p cbr -e 500 -c 0 -i 2 -a 0 -x {0.0 15.0 2 ------- null}
- -t 0.131857142857143 -s 3 -d 15 -p cbr -e 500 -c 0 -i 2 -a 0 -x {0.0 15.0 2 ------- null}
h -t 0.131857142857143 -s 3 -d 15 -p cbr -e 500 -c 0 -i 2 -a 0 -x {0.0 15.0 -1 ------- null}
+ -t 0.135714285714286 -s 0 -d 3 -p cbr -e 500 -c 0 -i 4 -a 0 -x {0.0 15.0 4 ------- null}
- -t 0.135714285714286 -s 0 -d 3 -p cbr -e 500 -c 0 -i 4 -a 0 -x {0.0 15.0 4 ------- null}
h -t 0.135714285714286 -s 0 -d 3 -p cbr -e 500 -c 0 -i 4 -a 0 -x {0.0 15.0 -1 ------- null}
r -t 0.136928571428571 -s 3 -d 15 -p cbr -e 500 -c 0 -i 1 -a 0 -x {0.0 15.0 1 ------- null}
r -t 0.140785714285714 -s 0 -d 3 -p cbr -e 500 -c 0 -i 3 -a 0 -x {0.0 15.0 3 ------- null}
+ -t 0.140785714285714 -s 3 -d 15 -p cbr -e 500 -c 0 -i 3 -a 0 -x {0.0 15.0 3 ------- null}
- -t 0.140785714285714 -s 3 -d 15 -p cbr -e 500 -c 0 -i 3 -a 0 -x {0.0 15.0 3 ------- null}
h -t 0.140785714285714 -s 3 -d 15 -p cbr -e 500 -c 0 -i 3 -a 0 -x {0.0 15.0 -1 ------- null}
+ -t 0.144642857142857 -s 0 -d 3 -p cbr -e 500 -c 0 -i 5 -a 0 -x {0.0 15.0 5 ------- null}
- -t 0.144642857142857 -s 0 -d 3 -p cbr -e 500 -c 0 -i 5 -a 0 -x {0.0 15.0 5 ------- null}
h -t 0.144642857142857 -s 0 -d 3 -p cbr -e 500 -c 0 -i 5 -a 0 -x {0.0 15.0 -1 ------- null}
r -t 0.145857142857143 -s 3 -d 15 -p cbr -e 500 -c 0 -i 2 -a 0 -x {0.0 15.0 2 ------- null}
r -t 0.149714285714286 -s 0 -d 3 -p cbr -e 500 -c 0 -i 4 -a 0 -x {0.0 15.0 4 ------- null}
+ -t 0.149714285714286 -s 3 -d 15 -p cbr -e 500 -c 0 -i 4 -a 0 -x {0.0 15.0 4 ------- null}
- -t 0.149714285714286 -s 3 -d 15 -p cbr -e 500 -c 0 -i 4 -a 0 -x {0.0 15.0 4 ------- null}
h -t 0.149714285714286 -s 3 -d 15 -p cbr -e 500 -c 0 -i 4 -a 0 -x {0.0 15.0 -1 ------- null}
+ -t 0.153571428571429 -s 0 -d 3 -p cbr -e 500 -c 0 -i 6 -a 0 -x {0.0 15.0 6 ------- null}
- -t 0.153571428571429 -s 0 -d 3 -p cbr -e 500 -c 0 -i 6 -a 0 -x {0.0 15.0 6 ------- null}
h -t 0.153571428571429 -s 0 -d 3 -p cbr -e 500 -c 0 -i 6 -a 0 -x {0.0 15.0 -1 ------- null}
r -t 0.154785714285714 -s 3 -d 15 -p cbr -e 500 -c 0 -i 3 -a 0 -x {0.0 15.0 3 ------- null}
r -t 0.158642857142857 -s 0 -d 3 -p cbr -e 500 -c 0 -i 5 -a 0 -x {0.0 15.0 5 ------- null}
+ -t 0.158642857142857 -s 3 -d 15 -p cbr -e 500 -c 0 -i 5 -a 0 -x {0.0 15.0 5 ------- null}
- -t 0.158642857142857 -s 3 -d 15 -p cbr -e 500 -c 0 -i 5 -a 0 -x {0.0 15.0 5 ------- null}
h -t 0.158642857142857 -s 3 -d 15 -p cbr -e 500 -c 0 -i 5 -a 0 -x {0.0 15.0 -1 ------- null}
+ -t 0.1625 -s 0 -d 3 -p cbr -e 500 -c 0 -i 7 -a 0 -x {0.0 15.0 7 ------- null}
- -t 0.1625 -s 0 -d 3 -p cbr -e 500 -c 0 -i 7 -a 0 -x {0.0 15.0 7 ------- null}
h -t 0.1625 -s 0 -d 3 -p cbr -e 500 -c 0 -i 7 -a 0 -x {0.0 15.0 -1 ------- null}
r -t 0.163714285714286 -s 3 -d 15 -p cbr -e 500 -c 0 -i 4 -a 0 -x {0.0 15.0 4 ------- null}
r -t 0.167571428571429 -s 0 -d 3 -p cbr -e 500 -c 0 -i 6 -a 0 -x {0.0 15.0 6 ------- null}
+ -t 0.167571428571429 -s 3 -d 15 -p cbr -e 500 -c 0 -i 6 -a 0 -x {0.0 15.0 6 ------- null}
- -t 0.167571428571429 -s 3 -d 15 -p cbr -e 500 -c 0 -i 6 -a 0 -x {0.0 15.0 6 ------- null}
h -t 0.167571428571429 -s 3 -d 15 -p cbr -e 500 -c 0 -i 6 -a 0 -x {0.0 15.0 -1 ------- null}
+ -t 0.171428571428571 -s 0 -d 3 -p cbr -e 500 -c 0 -i 8 -a 0 -x {0.0 15.0 8 ------- null}
- -t 0.171428571428571 -s 0 -d 3 -p cbr -e 500 -c 0 -i 8 -a 0 -x {0.0 15.0 8 ------- null}
h -t 0.171428571428571 -s 0 -d 3 -p cbr -e 500 -c 0 -i 8 -a 0 -x {0.0 15.0 -1 ------- null}
r -t 0.172642857142857 -s 3 -d 15 -p cbr -e 500 -c 0 -i 5 -a 0 -x {0.0 15.0 5 ------- null}
r -t 0.1765 -s 0 -d 3 -p cbr -e 500 -c 0 -i 7 -a 0 -x {0.0 15.0 7 ------- null}
+ -t 0.1765 -s 3 -d 15 -p cbr -e 500 -c 0 -i 7 -a 0 -x {0.0 15.0 7 ------- null}
- -t 0.1765 -s 3 -d 15 -p cbr -e 500 -c 0 -i 7 -a 0 -x {0.0 15.0 7 ------- null}
h -t 0.1765 -s 3 -d 15 -p cbr -e 500 -c 0 -i 7 -a 0 -x {0.0 15.0 -1 ------- null}
+ -t 0.180357142857143 -s 0 -d 3 -p cbr -e 500 -c 0 -i 9 -a 0 -x {0.0 15.0 9 ------- null}
- -t 0.180357142857143 -s 0 -d 3 -p cbr -e 500 -c 0 -i 9 -a 0 -x {0.0 15.0 9 ------- null}
h -t 0.180357142857143 -s 0 -d 3 -p cbr -e 500 -c 0 -i 9 -a 0 -x {0.0 15.0 -1 ------- null}
r -t 0.181571428571429 -s 3 -d 15 -p cbr -e 500 -c 0 -i 6 -a 0 -x {0.0 15.0 6 ------- null}
r -t 0.185428571428571 -s 0 -d 3 -p cbr -e 500 -c 0 -i 8 -a 0 -x {0.0 15.0 8 ------- null}
+ -t 0.185428571428571 -s 3 -d 15 -p cbr -e 500 -c 0 -i 8 -a 0 -x {0.0 15.0 8 ------- null}
- -t 0.185428571428571 -s 3 -d 15 -p cbr -e 500 -c 0 -i 8 -a 0 -x {0.0 15.0 8 ------- null}
h -t 0.185428571428571 -s 3 -d 15 -p cbr -e 500 -c 0 -i 8 -a 0 -x {0.0 15.0 -1 ------- null}
+ -t 0.189285714285714 -s 0 -d 3 -p cbr -e 500 -c 0 -i 10 -a 0 -x {0.0 15.0 10 ------- null}
- -t 0.189285714285714 -s 0 -d 3 -p cbr -e 500 -c 0 -i 10 -a 0 -x {0.0 15.0 10 ------- null}
h -t 0.189285714285714 -s 0 -d 3 -p cbr -e 500 -c 0 -i 10 -a 0 -x {0.0 15.0 -1 ------- null}
r -t 0.1905 -s 3 -d 15 -p cbr -e 500 -c 0 -i 7 -a 0 -x {0.0 15.0 7 ------- null}
r -t 0.194357142857143 -s 0 -d 3 -p cbr -e 500 -c 0 -i 9 -a 0 -x {0.0 15.0 9 ------- null}
+ -t 0.194357142857143 -s 3 -d 15 -p cbr -e 500 -c 0 -i 9 -a 0 -x {0.0 15.0 9 ------- null}
- -t 0.194357142857143 -s 3 -d 15 -p cbr -e 500 -c 0 -i 9 -a 0 -x {0.0 15.0 9 ------- null}
h -t 0.194357142857143 -s 3 -d 15 -p cbr -e 500 -c 0 -i 9 -a 0 -x {0.0 15.0 -1 ------- null}
+ -t 0.198214285714286 -s 0 -d 3 -p cbr -e 500 -c 0 -i 11 -a 0 -x {0.0 15.0 11 ------- null}
- -t 0.198214285714286 -s 0 -d 3 -p cbr -e 500 -c 0 -i 11 -a 0 -x {0.0 15.0 11 ------- null}
h -t 0.198214285714286 -s 0 -d 3 -p cbr -e 500 -c 0 -i 11 -a 0 -x {0.0 15.0 -1 ------- null}
r -t 0.199428571428571 -s 3 -d 15 -p cbr -e 500 -c 0 -i 8 -a 0 -x {0.0 15.0 8 ------- null}
r -t 0.203285714285714 -s 0 -d 3 -p cbr -e 500 -c 0 -i 10 -a 0 -x {0.0 15.0 10 ------- null}
+ -t 0.203285714285714 -s 3 -d 15 -p cbr -e 500 -c 0 -i 10 -a 0 -x {0.0 15.0 10 ------- null}
- -t 0.203285714285714 -s 3 -d 15 -p cbr -e 500 -c 0 -i 10 -a 0 -x {0.0 15.0 10 ------- null}
h -t 0.203285714285714 -s 3 -d 15 -p cbr -e 500 -c 0 -i 10 -a 0 -x {0.0 15.0 -1 ------- null}
+ -t 0.207142857142857 -s 0 -d 3 -p cbr -e 500 -c 0 -i 12 -a 0 -x {0.0 15.0 12 ------- null}
- -t 0.207142857142857 -s 0 -d 3 -p cbr -e 500 -c 0 -i 12 -a 0 -x {0.0 15.0 12 ------- null}
h -t 0.207142857142857 -s 0 -d 3 -p cbr -e 500 -c 0 -i 12 -a 0 -x {0.0 15.0 -1 ------- null}
r -t 0.208357142857143 -s 3 -d 15 -p cbr -e 500 -c 0 -i 9 -a 0 -x {0.0 15.0 9 ------- null}
r -t 0.212214285714286 -s 0 -d 3 -p cbr -e 500 -c 0 -i 11 -a 0 -x {0.0 15.0 11 ------- null}
+ -t 0.212214285714286 -s 3 -d 15 -p cbr -e 500 -c 0 -i 11 -a 0 -x {0.0 15.0 11 ------- null}
- -t 0.212214285714286 -s 3 -d 15 -p cbr -e 500 -c 0 -i 11 -a 0 -x {0.0 15.0 11 ------- null}
h -t 0.212214285714286 -s 3 -d 15 -p cbr -e 500 -c 0 -i 11 -a 0 -x {0.0 15.0 -1 ------- null}
+ -t 0.216071428571429 -s 0 -d 3 -p cbr -e 500 -c 0 -i 13 -a 0 -x {0.0 15.0 13 ------- null}
- -t 0.216071428571429 -s 0 -d 3 -p cbr -e 500 -c 0 -i 13 -a 0 -x {0.0 15.0 13 ------- null}
h -t 0.216071428571429 -s 0 -d 3 -p cbr -e 500 -c 0 -i 13 -a 0 -x {0.0 15.0 -1 ------- null}
r -t 0.217285714285714 -s 3 -d 15 -p cbr -e 500 -c 0 -i 10 -a 0 -x {0.0 15.0 10 ------- null}
r -t 0.221142857142857 -s 0 -d 3 -p cbr -e 500 -c 0 -i 12 -a 0 -x {0.0 15.0 12 ------- null}
+ -t 0.221142857142857 -s 3 -d 15 -p cbr -e 500 -c 0 -i 12 -a 0 -x {0.0 15.0 12 ------- null}
- -t 0.221142857142857 -s 3 -d 15 -p cbr -e 500 -c 0 -i 12 -a 0 -x {0.0 15.0 12 ------- null}
h -t 0.221142857142857 -s 3 -d 15 -p cbr -e 500 -c 0 -i 12 -a 0 -x {0.0 15.0 -1 ------- null}
+ -t 0.225 -s 0 -d 3 -p cbr -e 500 -c 0 -i 14 -a 0 -x {0.0 15.0 14 ------- null}
- -t 0.225 -s 0 -d 3 -p cbr -e 500 -c 0 -i 14 -a 0 -x {0.0 15.0 14 ------- null}
h -t 0.225 -s 0 -d 3 -p cbr -e 500 -c 0 -i 14 -a 0 -x {0.0 15.0 -1 ------- null}
r -t 0.226214285714286 -s 3 -d 15 -p cbr -e 500 -c 0 -i 11 -a 0 -x {0.0 15.0 11 ------- null}
r -t 0.230071428571429 -s 0 -d 3 -p cbr -e 500 -c 0 -i 13 -a 0 -x {0.0 15.0 13 ------- null}
+ -t 0.230071428571429 -s 3 -d 15 -p cbr -e 500 -c 0 -i 13 -a 0 -x {0.0 15.0 13 ------- null}
- -t 0.230071428571429 -s 3 -d 15 -p cbr -e 500 -c 0 -i 13 -a 0 -x {0.0 15.0 13 ------- null}
h -t 0.230071428571429 -s 3 -d 15 -p cbr -e 500 -c 0 -i 13 -a 0 -x {0.0 15.0 -1 ------- null}
+ -t 0.233928571428571 -s 0 -d 3 -p cbr -e 500 -c 0 -i 15 -a 0 -x {0.0 15.0 15 ------- null}
- -t 0.233928571428571 -s 0 -d 3 -p cbr -e 500 -c 0 -i 15 -a 0 -x {0.0 15.0 15 ------- null}
h -t 0.233928571428571 -s 0 -d 3 -p cbr -e 500 -c 0 -i 15 -a 0 -x {0.0 15.0 -1 ------- null}
r -t 0.235142857142857 -s 3 -d 15 -p cbr -e 500 -c 0 -i 12 -a 0 -x {0.0 15.0 12 ------- null}
r -t 0.239 -s 0 -d 3 -p cbr -e 500 -c 0 -i 14 -a 0 -x {0.0 15.0 14 ------- null}
+ -t 0.239 -s 3 -d 15 -p cbr -e 500 -c 0 -i 14 -a 0 -x {0.0 15.0 14 ------- null}
- -t 0.239 -s 3 -d 15 -p cbr -e 500 -c 0 -i 14 -a 0 -x {0.0 15.0 14 ------- null}
h -t 0.239 -s 3 -d 15 -p cbr -e 500 -c 0 -i 14 -a 0 -x {0.0 15.0 -1 ------- null}
+ -t 0.242857142857143 -s 0 -d 3 -p cbr -e 500 -c 0 -i 16 -a 0 -x {0.0 15.0 16 ------- null}
- -t 0.242857142857143 -s 0 -d 3 -p cbr -e 500 -c 0 -i 16 -a 0 -x {0.0 15.0 16 ------- null}
h -t 0.242857142857143 -s 0 -d 3 -p cbr -e 500 -c 0 -i 16 -a 0 -x {0.0 15.0 -1 ------- null}
r -t 0.244071428571429 -s 3 -d 15 -p cbr -e 500 -c 0 -i 13 -a 0 -x {0.0 15.0 13 ------- null}
r -t 0.247928571428571 -s 0 -d 3 -p cbr -e 500 -c 0 -i 15 -a 0 -x {0.0 15.0 15 ------- null}
+ -t 0.247928571428571 -s 3 -d 15 -p cbr -e 500 -c 0 -i 15 -a 0 -x {0.0 15.0 15 ------- null}
- -t 0.247928571428571 -s 3 -d 15 -p cbr -e 500 -c 0 -i 15 -a 0 -x {0.0 15.0 15 ------- null}
h -t 0.247928571428571 -s 3 -d 15 -p cbr -e 500 -c 0 -i 15 -a 0 -x {0.0 15.0 -1 ------- null}
+ -t 0.251785714285714 -s 0 -d 3 -p cbr -e 500 -c 0 -i 17 -a 0 -x {0.0 15.0 17 ------- null}
- -t 0.251785714285714 -s 0 -d 3 -p cbr -e 500 -c 0 -i 17 -a 0 -x {0.0 15.0 17 ------- null}
h -t 0.251785714285714 -s 0 -d 3 -p cbr -e 500 -c 0 -i 17 -a 0 -x {0.0 15.0 -1 ------- null}
r -t 0.253 -s 3 -d 15 -p cbr -e 500 -c 0 -i 14 -a 0 -x {0.0 15.0 14 ------- null}
r -t 0.256857142857143 -s 0 -d 3 -p cbr -e 500 -c 0 -i 16 -a 0 -x {0.0 15.0 16 ------- null}
+ -t 0.256857142857143 -s 3 -d 15 -p cbr -e 500 -c 0 -i 16 -a 0 -x {0.0 15.0 16 ------- null}
- -t 0.256857142857143 -s 3 -d 15 -p cbr -e 500 -c 0 -i 16 -a 0 -x {0.0 15.0 16 ------- null}
h -t 0.256857142857143 -s 3 -d 15 -p cbr -e 500 -c 0 -i 16 -a 0 -x {0.0 15.0 -1 ------- null}
+ -t 0.260714285714286 -s 0 -d 3 -p cbr -e 500 -c 0 -i 18 -a 0 -x {0.0 15.0 18 ------- null}
- -t 0.260714285714286 -s 0 -d 3 -p cbr -e 500 -c 0 -i 18 -a 0 -x {0.0 15.0 18 ------- null}
h -t 0.260714285714286 -s 0 -d 3 -p cbr -e 500 -c 0 -i 18 -a 0 -x {0.0 15.0 -1 ------- null}
r -t 0.261928571428571 -s 3 -d 15 -p cbr -e 500 -c 0 -i 15 -a 0 -x {0.0 15.0 15 ------- null}
r -t 0.265785714285714 -s 0 -d 3 -p cbr -e 500 -c 0 -i 17 -a 0 -x {0.0 15.0 17 ------- null}
+ -t 0.265785714285714 -s 3 -d 15 -p cbr -e 500 -c 0 -i 17 -a 0 -x {0.0 15.0 17 ------- null}
- -t 0.265785714285714 -s 3 -d 15 -p cbr -e 500 -c 0 -i 17 -a 0 -x {0.0 15.0 17 ------- null}
h -t 0.265785714285714 -s 3 -d 15 -p cbr -e 500 -c 0 -i 17 -a 0 -x {0.0 15.0 -1 ------- null}
+ -t 0.269642857142857 -s 0 -d 3 -p cbr -e 500 -c 0 -i 19 -a 0 -x {0.0 15.0 19 ------- null}
- -t 0.269642857142857 -s 0 -d 3 -p cbr -e 500 -c 0 -i 19 -a 0 -x {0.0 15.0 19 ------- null}
h -t 0.269642857142857 -s 0 -d 3 -p cbr -e 500 -c 0 -i 19 -a 0 -x {0.0 15.0 -1 ------- null}
r -t 0.270857142857143 -s 3 -d 15 -p cbr -e 500 -c 0 -i 16 -a 0 -x {0.0 15.0 16 ------- null}
r -t 0.274714285714286 -s 0 -d 3 -p cbr -e 500 -c 0 -i 18 -a 0 -x {0.0 15.0 18 ------- null}
+ -t 0.274714285714286 -s 3 -d 15 -p cbr -e 500 -c 0 -i 18 -a 0 -x {0.0 15.0 18 ------- null}
- -t 0.274714285714286 -s 3 -d 15 -p cbr -e 500 -c 0 -i 18 -a 0 -x {0.0 15.0 18 ------- null}
h -t 0.274714285714286 -s 3 -d 15 -p cbr -e 500 -c 0 -i 18 -a 0 -x {0.0 15.0 -1 ------- null}
+ -t 0.278571428571429 -s 0 -d 3 -p cbr -e 500 -c 0 -i 20 -a 0 -x {0.0 15.0 20 ------- null}
- -t 0.278571428571429 -s 0 -d 3 -p cbr -e 500 -c 0 -i 20 -a 0 -x {0.0 15.0 20 ------- null}
h -t 0.278571428571429 -s 0 -d 3 -p cbr -e 500 -c 0 -i 20 -a 0 -x {0.0 15.0 -1 ------- null}
r -t 0.279785714285714 -s 3 -d 15 -p cbr -e 500 -c 0 -i 17 -a 0 -x {0.0 15.0 17 ------- null}
r -t 0.283642857142857 -s 0 -d 3 -p cbr -e 500 -c 0 -i 19 -a 0 -x {0.0 15.0 19 ------- null}
+ -t 0.283642857142857 -s 3 -d 15 -p cbr -e 500 -c 0 -i 19 -a 0 -x {0.0 15.0 19 ------- null}
- -t 0.283642857142857 -s 3 -d 15 -p cbr -e 500 -c 0 -i 19 -a 0 -x {0.0 15.0 19 ------- null}
h -t 0.283642857142857 -s 3 -d 15 -p cbr -e 500 -c 0 -i 19 -a 0 -x {0.0 15.0 -1 ------- null}
+ -t 0.2875 -s 0 -d 3 -p cbr -e 500 -c 0 -i 21 -a 0 -x {0.0 15.0 21 ------- null}
- -t 0.2875 -s 0 -d 3 -p cbr -e 500 -c 0 -i 21 -a 0 -x {0.0 15.0 21 ------- null}
h -t 0.2875 -s 0 -d 3 -p cbr -e 500 -c 0 -i 21 -a 0 -x {0.0 15.0 -1 ------- null}
r -t 0.288714285714286 -s 3 -d 15 -p cbr -e 500 -c 0 -i 18 -a 0 -x {0.0 15.0 18 ------- null}
r -t 0.292571428571429 -s 0 -d 3 -p cbr -e 500 -c 0 -i 20 -a 0 -x {0.0 15.0 20 ------- null}
+ -t 0.292571428571429 -s 3 -d 15 -p cbr -e 500 -c 0 -i 20 -a 0 -x {0.0 15.0 20 ------- null}
- -t 0.292571428571429 -s 3 -d 15 -p cbr -e 500 -c 0 -i 20 -a 0 -x {0.0 15.0 20 ------- null}
h -t 0.292571428571429 -s 3 -d 15 -p cbr -e 500 -c 0 -i 20 -a 0 -x {0.0 15.0 -1 ------- null}
+ -t 0.296428571428571 -s 0 -d 3 -p cbr -e 500 -c 0 -i 22 -a 0 -x {0.0 15.0 22 ------- null}
- -t 0.296428571428571 -s 0 -d 3 -p cbr -e 500 -c 0 -i 22 -a 0 -x {0.0 15.0 22 ------- null}
h -t 0.296428571428571 -s 0 -d 3 -p cbr -e 500 -c 0 -i 22 -a 0 -x {0.0 15.0 -1 ------- null}
r -t 0.297642857142857 -s 3 -d 15 -p cbr -e 500 -c 0 -i 19 -a 0 -x {0.0 15.0 19 ------- null}
r -t 0.3015 -s 0 -d 3 -p cbr -e 500 -c 0 -i 21 -a 0 -x {0.0 15.0 21 ------- null}
+ -t 0.3015 -s 3 -d 15 -p cbr -e 500 -c 0 -i 21 -a 0 -x {0.0 15.0 21 ------- null}
- -t 0.3015 -s 3 -d 15 -p cbr -e 500 -c 0 -i 21 -a 0 -x {0.0 15.0 21 ------- null}
h -t 0.3015 -s 3 -d 15 -p cbr -e 500 -c 0 -i 21 -a 0 -x {0.0 15.0 -1 ------- null}
+ -t 0.305357142857143 -s 0 -d 3 -p cbr -e 500 -c 0 -i 23 -a 0 -x {0.0 15.0 23 ------- null}
- -t 0.305357142857143 -s 0 -d 3 -p cbr -e 500 -c 0 -i 23 -a 0 -x {0.0 15.0 23 ------- null}
h -t 0.305357142857143 -s 0 -d 3 -p cbr -e 500 -c 0 -i 23 -a 0 -x {0.0 15.0 -1 ------- null}
r -t 0.306571428571429 -s 3 -d 15 -p cbr -e 500 -c 0 -i 20 -a 0 -x {0.0 15.0 20 ------- null}
r -t 0.310428571428571 -s 0 -d 3 -p cbr -e 500 -c 0 -i 22 -a 0 -x {0.0 15.0 22 ------- null}
+ -t 0.310428571428571 -s 3 -d 15 -p cbr -e 500 -c 0 -i 22 -a 0 -x {0.0 15.0 22 ------- null}
- -t 0.310428571428571 -s 3 -d 15 -p cbr -e 500 -c 0 -i 22 -a 0 -x {0.0 15.0 22 ------- null}
h -t 0.310428571428571 -s 3 -d 15 -p cbr -e 500 -c 0 -i 22 -a 0 -x {0.0 15.0 -1 ------- null}
+ -t 0.314285714285714 -s 0 -d 3 -p cbr -e 500 -c 0 -i 24 -a 0 -x {0.0 15.0 24 ------- null}
- -t 0.314285714285714 -s 0 -d 3 -p cbr -e 500 -c 0 -i 24 -a 0 -x {0.0 15.0 24 ------- null}
h -t 0.314285714285714 -s 0 -d 3 -p cbr -e 500 -c 0 -i 24 -a 0 -x {0.0 15.0 -1 ------- null}
r -t 0.3155 -s 3 -d 15 -p cbr -e 500 -c 0 -i 21 -a 0 -x {0.0 15.0 21 ------- null}
r -t 0.319357142857143 -s 0 -d 3 -p cbr -e 500 -c 0 -i 23 -a 0 -x {0.0 15.0 23 ------- null}
+ -t 0.319357142857143 -s 3 -d 15 -p cbr -e 500 -c 0 -i 23 -a 0 -x {0.0 15.0 23 ------- null}
- -t 0.319357142857143 -s 3 -d 15 -p cbr -e 500 -c 0 -i 23 -a 0 -x {0.0 15.0 23 ------- null}
h -t 0.319357142857143 -s 3 -d 15 -p cbr -e 500 -c 0 -i 23 -a 0 -x {0.0 15.0 -1 ------- null}
+ -t 0.323214285714286 -s 0 -d 3 -p cbr -e 500 -c 0 -i 25 -a 0 -x {0.0 15.0 25 ------- null}
- -t 0.323214285714286 -s 0 -d 3 -p cbr -e 500 -c 0 -i 25 -a 0 -x {0.0 15.0 25 ------- null}
h -t 0.323214285714286 -s 0 -d 3 -p cbr -e 500 -c 0 -i 25 -a 0 -x {0.0 15.0 -1 ------- null}
r -t 0.324428571428572 -s 3 -d 15 -p cbr -e 500 -c 0 -i 22 -a 0 -x {0.0 15.0 22 ------- null}
r -t 0.328285714285714 -s 0 -d 3 -p cbr -e 500 -c 0 -i 24 -a 0 -x {0.0 15.0 24 ------- null}
+ -t 0.328285714285714 -s 3 -d 15 -p cbr -e 500 -c 0 -i 24 -a 0 -x {0.0 15.0 24 ------- null}
- -t 0.328285714285714 -s 3 -d 15 -p cbr -e 500 -c 0 -i 24 -a 0 -x {0.0 15.0 24 ------- null}
h -t 0.328285714285714 -s 3 -d 15 -p cbr -e 500 -c 0 -i 24 -a 0 -x {0.0 15.0 -1 ------- null}
+ -t 0.332142857142857 -s 0 -d 3 -p cbr -e 500 -c 0 -i 26 -a 0 -x {0.0 15.0 26 ------- null}
- -t 0.332142857142857 -s 0 -d 3 -p cbr -e 500 -c 0 -i 26 -a 0 -x {0.0 15.0 26 ------- null}
h -t 0.332142857142857 -s 0 -d 3 -p cbr -e 500 -c 0 -i 26 -a 0 -x {0.0 15.0 -1 ------- null}
r -t 0.333357142857143 -s 3 -d 15 -p cbr -e 500 -c 0 -i 23 -a 0 -x {0.0 15.0 23 ------- null}
r -t 0.337214285714286 -s 0 -d 3 -p cbr -e 500 -c 0 -i 25 -a 0 -x {0.0 15.0 25 ------- null}
+ -t 0.337214285714286 -s 3 -d 15 -p cbr -e 500 -c 0 -i 25 -a 0 -x {0.0 15.0 25 ------- null}
- -t 0.337214285714286 -s 3 -d 15 -p cbr -e 500 -c 0 -i 25 -a 0 -x {0.0 15.0 25 ------- null}
h -t 0.337214285714286 -s 3 -d 15 -p cbr -e 500 -c 0 -i 25 -a 0 -x {0.0 15.0 -1 ------- null}
+ -t 0.341071428571429 -s 0 -d 3 -p cbr -e 500 -c 0 -i 27 -a 0 -x {0.0 15.0 27 ------- null}
- -t 0.341071428571429 -s 0 -d 3 -p cbr -e 500 -c 0 -i 27 -a 0 -x {0.0 15.0 27 ------- null}
h -t 0.341071428571429 -s 0 -d 3 -p cbr -e 500 -c 0 -i 27 -a 0 -x {0.0 15.0 -1 ------- null}
r -t 0.342285714285714 -s 3 -d 15 -p cbr -e 500 -c 0 -i 24 -a 0 -x {0.0 15.0 24 ------- null}
r -t 0.346142857142857 -s 0 -d 3 -p cbr -e 500 -c 0 -i 26 -a 0 -x {0.0 15.0 26 ------- null}
+ -t 0.346142857142857 -s 3 -d 15 -p cbr -e 500 -c 0 -i 26 -a 0 -x {0.0 15.0 26 ------- null}
- -t 0.346142857142857 -s 3 -d 15 -p cbr -e 500 -c 0 -i 26 -a 0 -x {0.0 15.0 26 ------- null}
h -t 0.346142857142857 -s 3 -d 15 -p cbr -e 500 -c 0 -i 26 -a 0 -x {0.0 15.0 -1 ------- null}
+ -t 0.35 -s 0 -d 3 -p cbr -e 500 -c 0 -i 28 -a 0 -x {0.0 15.0 28 ------- null}
- -t 0.35 -s 0 -d 3 -p cbr -e 500 -c 0 -i 28 -a 0 -x {0.0 15.0 28 ------- null}
h -t 0.35 -s 0 -d 3 -p cbr -e 500 -c 0 -i 28 -a 0 -x {0.0 15.0 -1 ------- null}
r -t 0.351214285714286 -s 3 -d 15 -p cbr -e 500 -c 0 -i 25 -a 0 -x {0.0 15.0 25 ------- null}
r -t 0.355071428571429 -s 0 -d 3 -p cbr -e 500 -c 0 -i 27 -a 0 -x {0.0 15.0 27 ------- null}
+ -t 0.355071428571429 -s 3 -d 15 -p cbr -e 500 -c 0 -i 27 -a 0 -x {0.0 15.0 27 ------- null}
- -t 0.355071428571429 -s 3 -d 15 -p cbr -e 500 -c 0 -i 27 -a 0 -x {0.0 15.0 27 ------- null}
h -t 0.355071428571429 -s 3 -d 15 -p cbr -e 500 -c 0 -i 27 -a 0 -x {0.0 15.0 -1 ------- null}
+ -t 0.358928571428572 -s 0 -d 3 -p cbr -e 500 -c 0 -i 29 -a 0 -x {0.0 15.0 29 ------- null}
- -t 0.358928571428572 -s 0 -d 3 -p cbr -e 500 -c 0 -i 29 -a 0 -x {0.0 15.0 29 ------- null}
h -t 0.358928571428572 -s 0 -d 3 -p cbr -e 500 -c 0 -i 29 -a 0 -x {0.0 15.0 -1 ------- null}
r -t 0.360142857142857 -s 3 -d 15 -p cbr -e 500 -c 0 -i 26 -a 0 -x {0.0 15.0 26 ------- null}
r -t 0.364 -s 0 -d 3 -p cbr -e 500 -c 0 -i 28 -a 0 -x {0.0 15.0 28 ------- null}
+ -t 0.364 -s 3 -d 15 -p cbr -e 500 -c 0 -i 28 -a 0 -x {0.0 15.0 28 ------- null}
- -t 0.364 -s 3 -d 15 -p cbr -e 500 -c 0 -i 28 -a 0 -x {0.0 15.0 28 ------- null}
h -t 0.364 -s 3 -d 15 -p cbr -e 500 -c 0 -i 28 -a 0 -x {0.0 15.0 -1 ------- null}
+ -t 0.367857142857143 -s 0 -d 3 -p cbr -e 500 -c 0 -i 30 -a 0 -x {0.0 15.0 30 ------- null}
- -t 0.367857142857143 -s 0 -d 3 -p cbr -e 500 -c 0 -i 30 -a 0 -x {0.0 15.0 30 ------- null}
h -t 0.367857142857143 -s 0 -d 3 -p cbr -e 500 -c 0 -i 30 -a 0 -x {0.0 15.0 -1 ------- null}
r -t 0.369071428571429 -s 3 -d 15 -p cbr -e 500 -c 0 -i 27 -a 0 -x {0.0 15.0 27 ------- null}
r -t 0.372928571428572 -s 0 -d 3 -p cbr -e 500 -c 0 -i 29 -a 0 -x {0.0 15.0 29 ------- null}
+ -t 0.372928571428572 -s 3 -d 15 -p cbr -e 500 -c 0 -i 29 -a 0 -x {0.0 15.0 29 ------- null}
- -t 0.372928571428572 -s 3 -d 15 -p cbr -e 500 -c 0 -i 29 -a 0 -x {0.0 15.0 29 ------- null}
h -t 0.372928571428572 -s 3 -d 15 -p cbr -e 500 -c 0 -i 29 -a 0 -x {0.0 15.0 -1 ------- null}
+ -t 0.376785714285715 -s 0 -d 3 -p cbr -e 500 -c 0 -i 31 -a 0 -x {0.0 15.0 31 ------- null}
- -t 0.376785714285715 -s 0 -d 3 -p cbr -e 500 -c 0 -i 31 -a 0 -x {0.0 15.0 31 ------- null}
h -t 0.376785714285715 -s 0 -d 3 -p cbr -e 500 -c 0 -i 31 -a 0 -x {0.0 15.0 -1 ------- null}
r -t 0.378 -s 3 -d 15 -p cbr -e 500 -c 0 -i 28 -a 0 -x {0.0 15.0 28 ------- null}
r -t 0.381857142857143 -s 0 -d 3 -p cbr -e 500 -c 0 -i 30 -a 0 -x {0.0 15.0 30 ------- null}
+ -t 0.381857142857143 -s 3 -d 15 -p cbr -e 500 -c 0 -i 30 -a 0 -x {0.0 15.0 30 ------- null}
- -t 0.381857142857143 -s 3 -d 15 -p cbr -e 500 -c 0 -i 30 -a 0 -x {0.0 15.0 30 ------- null}
h -t 0.381857142857143 -s 3 -d 15 -p cbr -e 500 -c 0 -i 30 -a 0 -x {0.0 15.0 -1 ------- null}
+ -t 0.385714285714286 -s 0 -d 3 -p cbr -e 500 -c 0 -i 32 -a 0 -x {0.0 15.0 32 ------- null}
- -t 0.385714285714286 -s 0 -d 3 -p cbr -e 500 -c 0 -i 32 -a 0 -x {0.0 15.0 32 ------- null}
h -t 0.385714285714286 -s 0 -d 3 -p cbr -e 500 -c 0 -i 32 -a 0 -x {0.0 15.0 -1 ------- null}
r -t 0.386928571428572 -s 3 -d 15 -p cbr -e 500 -c 0 -i 29 -a 0 -x {0.0 15.0 29 ------- null}
r -t 0.390785714285715 -s 0 -d 3 -p cbr -e 500 -c 0 -i 31 -a 0 -x {0.0 15.0 31 ------- null}
+ -t 0.390785714285715 -s 3 -d 15 -p cbr -e 500 -c 0 -i 31 -a 0 -x {0.0 15.0 31 ------- null}
- -t 0.390785714285715 -s 3 -d 15 -p cbr -e 500 -c 0 -i 31 -a 0 -x {0.0 15.0 31 ------- null}
h -t 0.390785714285715 -s 3 -d 15 -p cbr -e 500 -c 0 -i 31 -a 0 -x {0.0 15.0 -1 ------- null}
+ -t 0.394642857142857 -s 0 -d 3 -p cbr -e 500 -c 0 -i 33 -a 0 -x {0.0 15.0 33 ------- null}
- -t 0.394642857142857 -s 0 -d 3 -p cbr -e 500 -c 0 -i 33 -a 0 -x {0.0 15.0 33 ------- null}
h -t 0.394642857142857 -s 0 -d 3 -p cbr -e 500 -c 0 -i 33 -a 0 -x {0.0 15.0 -1 ------- null}
r -t 0.395857142857143 -s 3 -d 15 -p cbr -e 500 -c 0 -i 30 -a 0 -x {0.0 15.0 30 ------- null}
r -t 0.399714285714286 -s 0 -d 3 -p cbr -e 500 -c 0 -i 32 -a 0 -x {0.0 15.0 32 ------- null}
+ -t 0.399714285714286 -s 3 -d 15 -p cbr -e 500 -c 0 -i 32 -a 0 -x {0.0 15.0 32 ------- null}
- -t 0.399714285714286 -s 3 -d 15 -p cbr -e 500 -c 0 -i 32 -a 0 -x {0.0 15.0 32 ------- null}
h -t 0.399714285714286 -s 3 -d 15 -p cbr -e 500 -c 0 -i 32 -a 0 -x {0.0 15.0 -1 ------- null}
+ -t 0.403571428571429 -s 0 -d 3 -p cbr -e 500 -c 0 -i 34 -a 0 -x {0.0 15.0 34 ------- null}
- -t 0.403571428571429 -s 0 -d 3 -p cbr -e 500 -c 0 -i 34 -a 0 -x {0.0 15.0 34 ------- null}
h -t 0.403571428571429 -s 0 -d 3 -p cbr -e 500 -c 0 -i 34 -a 0 -x {0.0 15.0 -1 ------- null}
r -t 0.404785714285715 -s 3 -d 15 -p cbr -e 500 -c 0 -i 31 -a 0 -x {0.0 15.0 31 ------- null}
r -t 0.408642857142857 -s 0 -d 3 -p cbr -e 500 -c 0 -i 33 -a 0 -x {0.0 15.0 33 ------- null}
+ -t 0.408642857142857 -s 3 -d 15 -p cbr -e 500 -c 0 -i 33 -a 0 -x {0.0 15.0 33 ------- null}
- -t 0.408642857142857 -s 3 -d 15 -p cbr -e 500 -c 0 -i 33 -a 0 -x {0.0 15.0 33 ------- null}
h -t 0.408642857142857 -s 3 -d 15 -p cbr -e 500 -c 0 -i 33 -a 0 -x {0.0 15.0 -1 ------- null}
+ -t 0.4125 -s 0 -d 3 -p cbr -e 500 -c 0 -i 35 -a 0 -x {0.0 15.0 35 ------- null}
- -t 0.4125 -s 0 -d 3 -p cbr -e 500 -c 0 -i 35 -a 0 -x {0.0 15.0 35 ------- null}
h -t 0.4125 -s 0 -d 3 -p cbr -e 500 -c 0 -i 35 -a 0 -x {0.0 15.0 -1 ------- null}
r -t 0.413714285714286 -s 3 -d 15 -p cbr -e 500 -c 0 -i 32 -a 0 -x {0.0 15.0 32 ------- null}
r -t 0.417571428571429 -s 0 -d 3 -p cbr -e 500 -c 0 -i 34 -a 0 -x {0.0 15.0 34 ------- null}
+ -t 0.417571428571429 -s 3 -d 15 -p cbr -e 500 -c 0 -i 34 -a 0 -x {0.0 15.0 34 ------- null}
- -t 0.417571428571429 -s 3 -d 15 -p cbr -e 500 -c 0 -i 34 -a 0 -x {0.0 15.0 34 ------- null}
h -t 0.417571428571429 -s 3 -d 15 -p cbr -e 500 -c 0 -i 34 -a 0 -x {0.0 15.0 -1 ------- null}
+ -t 0.421428571428572 -s 0 -d 3 -p cbr -e 500 -c 0 -i 36 -a 0 -x {0.0 15.0 36 ------- null}
- -t 0.421428571428572 -s 0 -d 3 -p cbr -e 500 -c 0 -i 36 -a 0 -x {0.0 15.0 36 ------- null}
h -t 0.421428571428572 -s 0 -d 3 -p cbr -e 500 -c 0 -i 36 -a 0 -x {0.0 15.0 -1 ------- null}
r -t 0.422642857142857 -s 3 -d 15 -p cbr -e 500 -c 0 -i 33 -a 0 -x {0.0 15.0 33 ------- null}
r -t 0.4265 -s 0 -d 3 -p cbr -e 500 -c 0 -i 35 -a 0 -x {0.0 15.0 35 ------- null}
+ -t 0.4265 -s 3 -d 15 -p cbr -e 500 -c 0 -i 35 -a 0 -x {0.0 15.0 35 ------- null}
- -t 0.4265 -s 3 -d 15 -p cbr -e 500 -c 0 -i 35 -a 0 -x {0.0 15.0 35 ------- null}
h -t 0.4265 -s 3 -d 15 -p cbr -e 500 -c 0 -i 35 -a 0 -x {0.0 15.0 -1 ------- null}
+ -t 0.430357142857143 -s 0 -d 3 -p cbr -e 500 -c 0 -i 37 -a 0 -x {0.0 15.0 37 ------- null}
- -t 0.430357142857143 -s 0 -d 3 -p cbr -e 500 -c 0 -i 37 -a 0 -x {0.0 15.0 37 ------- null}
h -t 0.430357142857143 -s 0 -d 3 -p cbr -e 500 -c 0 -i 37 -a 0 -x {0.0 15.0 -1 ------- null}
r -t 0.431571428571429 -s 3 -d 15 -p cbr -e 500 -c 0 -i 34 -a 0 -x {0.0 15.0 34 ------- null}
r -t 0.435428571428572 -s 0 -d 3 -p cbr -e 500 -c 0 -i 36 -a 0 -x {0.0 15.0 36 ------- null}
+ -t 0.435428571428572 -s 3 -d 15 -p cbr -e 500 -c 0 -i 36 -a 0 -x {0.0 15.0 36 ------- null}
- -t 0.435428571428572 -s 3 -d 15 -p cbr -e 500 -c 0 -i 36 -a 0 -x {0.0 15.0 36 ------- null}
h -t 0.435428571428572 -s 3 -d 15 -p cbr -e 500 -c 0 -i 36 -a 0 -x {0.0 15.0 -1 ------- null}
+ -t 0.439285714285715 -s 0 -d 3 -p cbr -e 500 -c 0 -i 38 -a 0 -x {0.0 15.0 38 ------- null}
- -t 0.439285714285715 -s 0 -d 3 -p cbr -e 500 -c 0 -i 38 -a 0 -x {0.0 15.0 38 ------- null}
h -t 0.439285714285715 -s 0 -d 3 -p cbr -e 500 -c 0 -i 38 -a 0 -x {0.0 15.0 -1 ------- null}