+ 0.1 0 3 cbr 500 ------- 0 0.0 15.0 0 0
- 0.1 0 3 cbr 500 ------- 0 0.0 15.0 0 0
+ 0.108929 0 3 cbr 500 ------- 0 0.0 15.0 1 1
- 0.108929 0 3 cbr 500 ------- 0 0.0 15.0 1 1
r 0.114 0 3 cbr 500 ------- 0 0.0 15.0 0 0
+ 0.114 3 15 cbr 500 ------- 0 0.0 15.0 0 0
- 0.114 3 15 cbr 500 ------- 0 0.0 15.0 0 0
+ 0.117857 0 3 cbr 500 ------- 0 0.0 15.0 2 2
- 0.117857 0 3 cbr 500 ------- 0 0.0 15.0 2 2
r 0.122929 0 3 cbr 500 ------- 0 0.0 15.0 1 1
+ 0.122929 3 15 cbr 500 ------- 0 0.0 15.0 1 1
- 0.122929 3 15 cbr 500 ------- 0 0.0 15.0 1 1
+ 0.126786 0 3 cbr 500 ------- 0 0.0 15.0 3 3
- 0.126786 0 3 cbr 500 ------- 0 0.0 15.0 3 3
r 0.128 3 15 cbr 500 ------- 0 0.0 15.0 0 0
r 0.131857 0 3 cbr 500 ------- 0 0.0 15.0 2 2
+ 0.131857 3 15 cbr 500 ------- 0 0.0 15.0 2 2
- 0.131857 3 15 cbr 500 ------- 0 0.0 15.0 2 2
+ 0.135714 0 3 cbr 500 ------- 0 0.0 15.0 4 4
- 0.135714 0 3 cbr 500 ------- 0 0.0 15.0 4 4
r 0.136929 3 15 cbr 500 ------- 0 0.0 15.0 1 1
r 0.140786 0 3 cbr 500 ------- 0 0.0 15.0 3 3
+ 0.140786 3 15 cbr 500 ------- 0 0.0 15.0 3 3
- 0.140786 3 15 cbr 500 ------- 0 0.0 15.0 3 3
+ 0.144643 0 3 cbr 500 ------- 0 0.0 15.0 5 5
- 0.144643 0 3 cbr 500 ------- 0 0.0 15.0 5 5
r 0.145857 3 15 cbr 500 ------- 0 0.0 15.0 2 2
r 0.149714 0 3 cbr 500 ------- 0 0.0 15.0 4 4
+ 0.149714 3 15 cbr 500 ------- 0 0.0 15.0 4 4
- 0.149714 3 15 cbr 500 ------- 0 0.0 15.0 4 4
+ 0.153571 0 3 cbr 500 ------- 0 0.0 15.0 6 6
- 0.153571 0 3 cbr 500 ------- 0 0.0 15.0 6 6
r 0.154786 3 15 cbr 500 ------- 0 0.0 15.0 3 3
r 0.158643 0 3 cbr 500 ------- 0 0.0 15.0 5 5
+ 0.158643 3 15 cbr 500 ------- 0 0.0 15.0 5 5
- 0.158643 3 15 cbr 500 ------- 0 0.0 15.0 5 5
+ 0.1625 0 3 cbr 500 ------- 0 0.0 15.0 7 7
- 0.1625 0 3 cbr 500 ------- 0 0.0 15.0 7 7
r 0.163714 3 15 cbr 500 ------- 0 0.0 15.0 4 4
r 0.167571 0 3 cbr 500 ------- 0 0.0 15.0 6 6
+ 0.167571 3 15 cbr 500 ------- 0 0.0 15.0 6 6
- 0.167571 3 15 cbr 500 ------- 0 0.0 15.0 6 6
+ 0.171429 0 3 cbr 500 ------- 0 0.0 15.0 8 8
- 0.171429 0 3 cbr 500 ------- 0 0.0 15.0 8 8
r 0.172643 3 15 cbr 500 ------- 0 0.0 15.0 5 5
r 0.1765 0 3 cbr 500 ------- 0 0.0 15.0 7 7
+ 0.1765 3 15 cbr 500 ------- 0 0.0 15.0 7 7
- 0.1765 3 15 cbr 500 ------- 0 0.0 15.0 7 7
+ 0.180357 0 3 cbr 500 ------- 0 0.0 15.0 9 9
- 0.180357 0 3 cbr 500 ------- 0 0.0 15.0 9 9
r 0.181571 3 15 cbr 500 ------- 0 0.0 15.0 6 6
r 0.185429 0 3 cbr 500 ------- 0 0.0 15.0 8 8
+ 0.185429 3 15 cbr 500 ------- 0 0.0 15.0 8 8
- 0.185429 3 15 cbr 500 ------- 0 0.0 15.0 8 8
+ 0.189286 0 3 cbr 500 ------- 0 0.0 15.0 10 10
- 0.189286 0 3 cbr 500 ------- 0 0.0 15.0 10 10
r 0.1905 3 15 cbr 500 ------- 0 0.0 15.0 7 7
r 0.194357 0 3 cbr 500 ------- 0 0.0 15.0 9 9
+ 0.194357 3 15 cbr 500 ------- 0 0.0 15.0 9 9
- 0.194357 3 15 cbr 500 ------- 0 0.0 15.0 9 9
+ 0.198214 0 3 cbr 500 ------- 0 0.0 15.0 11 11
- 0.198214 0 3 cbr 500 ------- 0 0.0 15.0 11 11
r 0.199429 3 15 cbr 500 ------- 0 0.0 15.0 8 8
r 0.203286 0 3 cbr 500 ------- 0 0.0 15.0 10 10
+ 0.203286 3 15 cbr 500 ------- 0 0.0 15.0 10 10
- 0.203286 3 15 cbr 500 ------- 0 0.0 15.0 10 10
+ 0.207143 0 3 cbr 500 ------- 0 0.0 15.0 12 12
- 0.207143 0 3 cbr 500 ------- 0 0.0 15.0 12 12
r 0.208357 3 15 cbr 500 ------- 0 0.0 15.0 9 9
r 0.212214 0 3 cbr 500 ------- 0 0.0 15.0 11 11
+ 0.212214 3 15 cbr 500 ------- 0 0.0 15.0 11 11
- 0.212214 3 15 cbr 500 ------- 0 0.0 15.0 11 11
+ 0.216071 0 3 cbr 500 ------- 0 0.0 15.0 13 13
- 0.216071 0 3 cbr 500 ------- 0 0.0 15.0 13 13
r 0.217286 3 15 cbr 500 ------- 0 0.0 15.0 10 10
r 0.221143 0 3 cbr 500 ------- 0 0.0 15.0 12 12
+ 0.221143 3 15 cbr 500 ------- 0 0.0 15.0 12 12
- 0.221143 3 15 cbr 500 ------- 0 0.0 15.0 12 12
+ 0.225 0 3 cbr 500 ------- 0 0.0 15.0 14 14
- 0.225 0 3 cbr 500 ------- 0 0.0 15.0 14 14
r 0.226214 3 15 cbr 500 ------- 0 0.0 15.0 11 11
r 0.230071 0 3 cbr 500 ------- 0 0.0 15.0 13 13
+ 0.230071 3 15 cbr 500 ------- 0 0.0 15.0 13 13
- 0.230071 3 15 cbr 500 ------- 0 0.0 15.0 13 13
+ 0.233929 0 3 cbr 500 ------- 0 0.0 15.0 15 15
- 0.233929 0 3 cbr 500 ------- 0 0.0 15.0 15 15
r 0.235143 3 15 cbr 500 ------- 0 0.0 15.0 12 12
r 0.239 0 3 cbr 500 ------- 0 0.0 15.0 14 14
+ 0.239 3 15 cbr 500 ------- 0 0.0 15.0 14 14
- 0.239 3 15 cbr 500 ------- 0 0.0 15.0 14 14
+ 0.242857 0 3 cbr 500 ------- 0 0.0 15.0 16 16
- 0.242857 0 3 cbr 500 ------- 0 0.0 15.0 16 16
r 0.244071 3 15 cbr 500 ------- 0 0.0 15.0 13 13
r 0.247929 0 3 cbr 500 ------- 0 0.0 15.0 15 15
+ 0.247929 3 15 cbr 500 ------- 0 0.0 15.0 15 15
- 0.247929 3 15 cbr 500 ------- 0 0.0 15.0 15 15
+ 0.251786 0 3 cbr 500 ------- 0 0.0 15.0 17 17
- 0.251786 0 3 cbr 500 ------- 0 0.0 15.0 17 17
r 0.253 3 15 cbr 500 ------- 0 0.0 15.0 14 14
r 0.256857 0 3 cbr 500 ------- 0 0.0 15.0 16 16
+ 0.256857 3 15 cbr 500 ------- 0 0.0 15.0 16 16
- 0.256857 3 15 cbr 500 ------- 0 0.0 15.0 16 16
+ 0.260714 0 3 cbr 500 ------- 0 0.0 15.0 18 18
- 0.260714 0 3 cbr 500 ------- 0 0.0 15.0 18 18
r 0.261929 3 15 cbr 500 ------- 0 0.0 15.0 15 15
r 0.265786 0 3 cbr 500 ------- 0 0.0 15.0 17 17
+ 0.265786 3 15 cbr 500 ------- 0 0.0 15.0 17 17
- 0.265786 3 15 cbr 500 ------- 0 0.0 15.0 17 17
+ 0.269643 0 3 cbr 500 ------- 0 0.0 15.0 19 19
- 0.269643 0 3 cbr 500 ------- 0 0.0 15.0 19 19
r 0.270857 3 15 cbr 500 ------- 0 0.0 15.0 16 16
r 0.274714 0 3 cbr 500 ------- 0 0.0 15.0 18 18
+ 0.274714 3 15 cbr 500 ------- 0 0.0 15.0 18 18
- 0.274714 3 15 cbr 500 ------- 0 0.0 15.0 18 18
+ 0.278571 0 3 cbr 500 ------- 0 0.0 15.0 20 20
- 0.278571 0 3 cbr 500 ------- 0 0.0 15.0 20 20
r 0.279786 3 15 cbr 500 ------- 0 0.0 15.0 17 17
r 0.283643 0 3 cbr 500 ------- 0 0.0 15.0 19 19
+ 0.283643 3 15 cbr 500 ------- 0 0.0 15.0 19 19
- 0.283643 3 15 cbr 500 ------- 0 0.0 15.0 19 19
+ 0.2875 0 3 cbr 500 ------- 0 0.0 15.0 21 21
- 0.2875 0 3 cbr 500 ------- 0 0.0 15.0 21 21
r 0.288714 3 15 cbr 500 ------- 0 0.0 15.0 18 18
r 0.292571 0 3 cbr 500 ------- 0 0.0 15.0 20 20
+ 0.292571 3 15 cbr 500 ------- 0 0.0 15.0 20 20
- 0.292571 3 15 cbr 500 ------- 0 0.0 15.0 20 20
+ 0.296429 0 3 cbr 500 ------- 0 0.0 15.0 22 22
- 0.296429 0 3 cbr 500 ------- 0 0.0 15.0 22 22
r 0.297643 3 15 cbr 500 ------- 0 0.0 15.0 19 19
r 0.3015 0 3 cbr 500 ------- 0 0.0 15.0 21 21
+ 0.3015 3 15 cbr 500 ------- 0 0.0 15.0 21 21
- 0.3015 3 15 cbr 500 ------- 0 0.0 15.0 21 21
+ 0.305357 0 3 cbr 500 ------- 0 0.0 15.0 23 23
- 0.305357 0 3 cbr 500 ------- 0 0.0 15.0 23 23
r 0.306571 3 15 cbr 500 ------- 0 0.0 15.0 20 20
r 0.310429 0 3 cbr 500 ------- 0 0.0 15.0 22 22
+ 0.310429 3 15 cbr 500 ------- 0 0.0 15.0 22 22
- 0.310429 3 15 cbr 500 ------- 0 0.0 15.0 22 22
+ 0.314286 0 3 cbr 500 ------- 0 0.0 15.0 24 24
- 0.314286 0 3 cbr 500 ------- 0 0.0 15.0 24 24
r 0.3155 3 15 cbr 500 ------- 0 0.0 15.0 21 21
r 0.319357 0 3 cbr 500 ------- 0 0.0 15.0 23 23
+ 0.319357 3 15 cbr 500 ------- 0 0.0 15.0 23 23
- 0.319357 3 15 cbr 500 ------- 0 0.0 15.0 23 23
+ 0.323214 0 3 cbr 500 ------- 0 0.0 15.0 25 25
- 0.323214 0 3 cbr 500 ------- 0 0.0 15.0 25 25
r 0.324429 3 15 cbr 500 ------- 0 0.0 15.0 22 22
r 0.328286 0 3 cbr 500 ------- 0 0.0 15.0 24 24
+ 0.328286 3 15 cbr 500 ------- 0 0.0 15.0 24 24
- 0.328286 3 15 cbr 500 ------- 0 0.0 15.0 24 24
+ 0.332143 0 3 cbr 500 ------- 0 0.0 15.0 26 26
- 0.332143 0 3 cbr 500 ------- 0 0.0 15.0 26 26
r 0.333357 3 15 cbr 500 ------- 0 0.0 15.0 23 23
r 0.337214 0 3 cbr 500 ------- 0 0.0 15.0 25 25
+ 0.337214 3 15 cbr 500 ------- 0 0.0 15.0 25 25
- 0.337214 3 15 cbr 500 ------- 0 0.0 15.0 25 25
+ 0.341071 0 3 cbr 500 ------- 0 0.0 15.0 27 27
- 0.341071 0 3 cbr 500 ------- 0 0.0 15.0 27 27
r 0.342286 3 15 cbr 500 ------- 0 0.0 15.0 24 24
r 0.346143 0 3 cbr 500 ------- 0 0.0 15.0 26 26
+ 0.346143 3 15 cbr 500 ------- 0 0.0 15.0 26 26
- 0.346143 3 15 cbr 500 ------- 0 0.0 15.0 26 26
+ 0.35 0 3 cbr 500 ------- 0 0.0 15.0 28 28
- 0.35 0 3 cbr 500 ------- 0 0.0 15.0 28 28
r 0.351214 3 15 cbr 500 ------- 0 0.0 15.0 25 25
r 0.355071 0 3 cbr 500 ------- 0 0.0 15.0 27 27
+ 0.355071 3 15 cbr 500 ------- 0 0.0 15.0 27 27
- 0.355071 3 15 cbr 500 ------- 0 0.0 15.0 27 27
+ 0.358929 0 3 cbr 500 ------- 0 0.0 15.0 29 29
- 0.358929 0 3 cbr 500 ------- 0 0.0 15.0 29 29
r 0.360143 3 15 cbr 500 ------- 0 0.0 15.0 26 26
r 0.364 0 3 cbr 500 ------- 0 0.0 15.0 28 28
+ 0.364 3 15 cbr 500 ------- 0 0.0 15.0 28 28
- 0.364 3 15 cbr 500 ------- 0 0.0 15.0 28 28
+ 0.367857 0 3 cbr 500 ------- 0 0.0 15.0 30 30
- 0.367857 0 3 cbr 500 ------- 0 0.0 15.0 30 30
r 0.369071 3 15 cbr 500 ------- 0 0.0 15.0 27 27
r 0.372929 0 3 cbr 500 ------- 0 0.0 15.0 29 29
+ 0.372929 3 15 cbr 500 ------- 0 0.0 15.0 29 29
- 0.372929 3 15 cbr 500 ------- 0 0.0 15.0 29 29
+ 0.376786 0 3 cbr 500 ------- 0 0.0 15.0 31 31
- 0.376786 0 3 cbr 500 ------- 0 0.0 15.0 31 31
r 0.378 3 15 cbr 500 ------- 0 0.0 15.0 28 28
r 0.381857 0 3 cbr 500 ------- 0 0.0 15.0 30 30
+ 0.381857 3 15 cbr 500 ------- 0 0.0 15.0 30 30
- 0.381857 3 15 cbr 500 ------- 0 0.0 15.0 30 30
+ 0.385714 0 3 cbr 500 ------- 0 0.0 15.0 32 32
- 0.385714 0 3 cbr 500 ------- 0 0.0 15.0 32 32
r 0.386929 3 15 cbr 500 ------- 0 0.0 15.0 29 29
r 0.390786 0 3 cbr 500 ------- 0 0.0 15.0 31 31
+ 0.390786 3 15 cbr 500 ------- 0 0.0 15.0 31 31
- 0.390786 3 15 cbr 500 ------- 0 0.0 15.0 31 31
+ 0.394643 0 3 cbr 500 ------- 0 0.0 15.0 33 33
- 0.394643 0 3 cbr 500 ------- 0 0.0 15.0 33 33
r 0.395857 3 15 cbr 500 ------- 0 0.0 15.0 30 30
r 0.399714 0 3 cbr 500 ------- 0 0.0 15.0 32 32
+ 0.399714 3 15 cbr 500 ------- 0 0.0 15.0 32 32
- 0.399714 3 15 cbr 500 ------- 0 0.0 15.0 32 32
+ 0.403571 0 3 cbr 500 ------- 0 0.0 15.0 34 34
- 0.403571 0 3 cbr 500 ------- 0 0.0 15.0 34 34
r 0.404786 3 15 cbr 500 ------- 0 0.0 15.0 31 31
r 0.408643 0 3 cbr 500 ------- 0 0.0 15.0 33 33
+ 0.408643 3 15 cbr 500 ------- 0 0.0 15.0 33 33
- 0.408643 3 15 cbr 500 ------- 0 0.0 15.0 33 33
+ 0.4125 0 3 cbr 500 ------- 0 0.0 15.0 35 35
- 0.4125 0 3 cbr 500 ------- 0 0.0 15.0 35 35
r 0.413714 3 15 cbr 500 ------- 0 0.0 15.0 32 32
r 0.417571 0 3 cbr 500 ------- 0 0.0 15.0 34 34
+ 0.417571 3 15 cbr 500 ------- 0 0.0 15.0 34 34
- 0.417571 3 15 cbr 500 ------- 0 0.0 15.0 34 34
+ 0.421429 0 3 cbr 500 ------- 0 0.0 15.0 36 36
- 0.421429 0 3 cbr 500 ------- 0 0.0 15.0 36 36
r 0.422643 3 15 cbr 500 ------- 0 0.0 15.0 33 33
r 0.4265 0 3 cbr 500 ------- 0 0.0 15.0 35 35
+ 0.4265 3 15 cbr 500 ------- 0 0.0 15.0 35 35
- 0.4265 3 15 cbr 500 ------- 0 0.0 15.0 35 35
+ 0.430357 0 3 cbr 500 ------- 0 0.0 15.0 37 37
- 0.430357 0 3 cbr 500 ------- 0 0.0 15.0 37 37
r 0.431571 3 15 cbr 500 ------- 0 0.0 15.0 34 34
r 0.435429 0 3 cbr 500 ------- 0 0.0 15.0 36 36
+ 0.435429 3 15 cbr 500 ------- 0 0.0 15.0 36 36
- 0.435429 3 15 cbr 500 ------- 0 0.0 15.0 36 36
+ 0.439286 0 3 cbr 500 ------- 0 0.0 15.0 38 38
- 0.439286 0 3 cbr 500 ------- 0 0.0 15.0 38 38
r 0.4405 3 15 cbr 500 ------- 0 0.0 15.0 35 35
r 0.444357 0 3 cbr 500 ------- 0 0.0 15.0 37 37
+ 0.444357 3 15 cbr 500 ------- 0 0.0 15.0 37 37
- 0.444357 3 15 cbr 500 ------- 0 0.0 15.0 37 37
+ 0.448214 0 3 cbr 500 ------- 0 0.0 15.0 39 39
- 0.448214 0 3 cbr 500 ------- 0 0.0 15.0 39 39
r 0.449429 3 15 cbr 500 ------- 0 0.0 15.0 36 36
r 0.453286 0 3 cbr 500 ------- 0 0.0 15.0 38 38
+ 0.453286 3 15 cbr 500 ------- 0 0.0 15.0 38 38
- 0.453286 3 15 cbr 500 ------- 0 0.0 15.0 38 38
+ 0.457143 0 3 cbr 500 ------- 0 0.0 15.0 40 40
- 0.457143 0 3 cbr 500 ------- 0 0.0 15.0 40 40
r 0.458357 3 15 cbr 500 ------- 0 0.0 15.0 37 37
r 0.462214 0 3 cbr 500 ------- 0 0.0 15.0 39 39
+ 0.462214 3 15 cbr 500 ------- 0 0.0 15.0 39 39
- 0.462214 3 15 cbr 500 ------- 0 0.0 15.0 39 39
+ 0.466071 0 3 cbr 500 ------- 0 0.0 15.0 41 41
- 0.466071 0 3 cbr 500 ------- 0 0.0 15.0 41 41
r 0.467286 3 15 cbr 500 ------- 0 0.0 15.0 38 38
r 0.471143 0 3 cbr 500 ------- 0 0.0 15.0 40 40
+ 0.471143 3 15 cbr 500 ------- 0 0.0 15.0 40 40
- 0.471143 3 15 cbr 500 ------- 0 0.0 15.0 40 40
+ 0.475 0 3 cbr 500 ------- 0 0.0 15.0 42 42
- 0.475 0 3 cbr 500 ------- 0 0.0 15.0 42 42
r 0.476214 3 15 cbr 500 ------- 0 0.0 15.0 39 39
r 0.480071 0 3 cbr 500 ------- 0 0.0 15.0 41 41
+ 0.480071 3 15 cbr 500 ------- 0 0.0 15.0 41 41
- 0.480071 3 15 cbr 500 ------- 0 0.0 15.0 41 41
+ 0.483929 0 3 cbr 500 ------- 0 0.0 15.0 43 43
- 0.483929 0 3 cbr 500 ------- 0 0.0 15.0 43 43
r 0.485143 3 15 cbr 500 ------- 0 0.0 15.0 40 40
r 0.489 0 3 cbr 500 ------- 0 0.0 15.0 42 42
+ 0.489 3 15 cbr 500 ------- 0 0.0 15.0 42 42
- 0.489 3 15 cbr 500 ------- 0 0.0 15.0 42 42
+ 0.492857 0 3 cbr 500 ------- 0 0.0 15.0 44 44
- 0.492857 0 3 cbr 500 ------- 0 0.0 15.0 44 44
r 0.494071 3 15 cbr 500 ------- 0 0.0 15.0 41 41
r 0.497929 0 3 cbr 500 ------- 0 0.0 15.0 43 43
+ 0.497929 3 15 cbr 500 ------- 0 0.0 15.0 43 43
- 0.497929 3 15 cbr 500 ------- 0 0.0 15.0 43 43
+ 0.501786 0 3 cbr 500 ------- 0 0.0 15.0 45 45
- 0.501786 0 3 cbr 500 ------- 0 0.0 15.0 45 45
r 0.503 3 15 cbr 500 ------- 0 0.0 15.0 42 42
r 0.506857 0 3 cbr 500 ------- 0 0.0 15.0 44 44
+ 0.506857 3 15 cbr 500 ------- 0 0.0 15.0 44 44
- 0.506857 3 15 cbr 500 ------- 0 0.0 15.0 44 44
+ 0.510714 0 3 cbr 500 ------- 0 0.0 15.0 46 46
- 0.510714 0 3 cbr 500 ------- 0 0.0 15.0 46 46
r 0.511929 3 15 cbr 500 ------- 0 0.0 15.0 43 43
r 0.515786 0 3 cbr 500 ------- 0 0.0 15.0 45 45
+ 0.515786 3 15 cbr 500 ------- 0 0.0 15.0 45 45
- 0.515786 3 15 cbr 500 ------- 0 0.0 15.0 45 45
+ 0.519643 0 3 cbr 500 ------- 0 0.0 15.0 47 47
- 0.519643 0 3 cbr 500 ------- 0 0.0 15.0 47 47
r 0.520857 3 15 cbr 500 ------- 0 0.0 15.0 44 44
r 0.524714 0 3 cbr 500 ------- 0 0.0 15.0 46 46
+ 0.524714 3 15 cbr 500 ------- 0 0.0 15.0 46 46
- 0.524714 3 15 cbr 500 ------- 0 0.0 15.0 46 46
+ 0.528571 0 3 cbr 500 ------- 0 0.0 15.0 48 48
- 0.528571 0 3 cbr 500 ------- 0 0.0 15.0 48 48
r 0.529786 3 15 cbr 500 ------- 0 0.0 15.0 45 45
r 0.533643 0 3 cbr 500 ------- 0 0.0 15.0 47 47
+ 0.533643 3 15 cbr 500 ------- 0 0.0 15.0 47 47
- 0.533643 3 15 cbr 500 ------- 0 0.0 15.0 47 47
+ 0.5375 0 3 cbr 500 ------- 0 0.0 15.0 49 49
- 0.5375 0 3 cbr 500 ------- 0 0.0 15.0 49 49
r 0.538714 3 15 cbr 500 ------- 0 0.0 15.0 46 46
r 0.542571 0 3 cbr 500 ------- 0 0.0 15.0 48 48
+ 0.542571 3 15 cbr 500 ------- 0 0.0 15.0 48 48
- 0.542571 3 15 cbr 500 ------- 0 0.0 15.0 48 48
+ 0.546429 0 3 cbr 500 ------- 0 0.0 15.0 50 50
- 0.546429 0 3 cbr 500 ------- 0 0.0 15.0 50 50
r 0.547643 3 15 cbr 500 ------- 0 0.0 15.0 47 47
r 0.5515 0 3 cbr 500 ------- 0 0.0 15.0 49 49
+ 0.5515 3 15 cbr 500 ------- 0 0.0 15.0 49 49
- 0.5515 3 15 cbr 500 ------- 0 0.0 15.0 49 49
+ 0.555357 0 3 cbr 500 ------- 0 0.0 15.0 51 51
- 0.555357 0 3 cbr 500 ------- 0 0.0 15.0 51 51
r 0.556571 3 15 cbr 500 ------- 0 0.0 15.0 48 48
r 0.560429 0 3 cbr 500 ------- 0 0.0 15.0 50 50
+ 0.560429 3 15 cbr 500 ------- 0 0.0 15.0 50 50
- 0.560429 3 15 cbr 500 ------- 0 0.0 15.0 50 50
+ 0.564286 0 3 cbr 500 ------- 0 0.0 15.0 52 52
- 0.564286 0 3 cbr 500 ------- 0 0.0 15.0 52 52
r 0.5655 3 15 cbr 500 ------- 0 0.0 15.0 49 49
r 0.569357 0 3 cbr 500 ------- 0 0.0 15.0 51 51
+ 0.569357 3 15 cbr 500 ------- 0 0.0 15.0 51 51
- 0.569357 3 15 cbr 500 ------- 0 0.0 15.0 51 51
+ 0.573214 0 3 cbr 500 ------- 0 0.0 15.0 53 53
- 0.573214 0 3 cbr 500 ------- 0 0.0 15.0 53 53
r 0.574429 3 15 cbr 500 ------- 0 0.0 15.0 50 50
r 0.578286 0 3 cbr 500 ------- 0 0.0 15.0 52 52
+ 0.578286 3 15 cbr 500 ------- 0 0.0 15.0 52 52
- 0.578286 3 15 cbr 500 ------- 0 0.0 15.0 52 52
+ 0.582143 0 3 cbr 500 ------- 0 0.0 15.0 54 54
- 0.582143 0 3 cbr 500 ------- 0 0.0 15.0 54 54
r 0.583357 3 15 cbr 500 ------- 0 0.0 15.0 51 51
r 0.587214 0 3 cbr 500 ------- 0 0.0 15.0 53 53
+ 0.587214 3 15 cbr 500 ------- 0 0.0 15.0 53 53
- 0.587214 3 15 cbr 500 ------- 0 0.0 15.0 53 53
+ 0.591071 0 3 cbr 500 ------- 0 0.0 15.0 55 55
- 0.591071 0 3 cbr 500 ------- 0 0.0 15.0 55 55
r 0.592286 3 15 cbr 500 ------- 0 0.0 15.0 52 52
r 0.596143 0 3 cbr 500 ------- 0 0.0 15.0 54 54
+ 0.596143 3 15 cbr 500 ------- 0 0.0 15.0 54 54
- 0.596143 3 15 cbr 500 ------- 0 0.0 15.0 54 54
+ 0.6 0 3 cbr 500 ------- 0 0.0 15.0 56 56
- 0.6 0 3 cbr 500 ------- 0 0.0 15.0 56 56
r 0.601214 3 15 cbr 500 ------- 0 0.0 15.0 53 53
r 0.605071 0 3 cbr 500 ------- 0 0.0 15.0 55 55
+ 0.605071 3 15 cbr 500 ------- 0 0.0 15.0 55 55
- 0.605071 3 15 cbr 500 ------- 0 0.0 15.0 55 55
+ 0.608929 0 3 cbr 500 ------- 0 0.0 15.0 57 57
- 0.608929 0 3 cbr 500 ------- 0 0.0 15.0 57 57
r 0.610143 3 15 cbr 500 ------- 0 0.0 15.0 54 54
r 0.614 0 3 cbr 500 ------- 0 0.0 15.0 56 56
+ 0.614 3 15 cbr 500 ------- 0 0.0 15.0 56 56
- 0.614 3 15 cbr 500 ------- 0 0.0 15.0 56 56
+ 0.617857 0 3 cbr 500 ------- 0 0.0 15.0 58 58
- 0.617857 0 3 cbr 500 ------- 0 0.0 15.0 58 58
r 0.619071 3 15 cbr 500 ------- 0 0.0 15.0 55 55
r 0.622929 0 3 cbr 500 ------- 0 0.0 15.0 57 57
+ 0.622929 3 15 cbr 500 ------- 0 0.0 15.0 57 57
- 0.622929 3 15 cbr 500 ------- 0 0.0 15.0 57 57
+ 0.626786 0 3 cbr 500 ------- 0 0.0 15.0 59 59
- 0.626786 0 3 cbr 500 ------- 0 0.0 15.0 59 59
r 0.628 3 15 cbr 500 ------- 0 0.0 15.0 56 56
r 0.631857 0 3 cbr 500 ------- 0 0.0 15.0 58 58
+ 0.631857 3 15 cbr 500 ------- 0 0.0 15.0 58 58
- 0.631857 3 15 cbr 500 ------- 0 0.0 15.0 58 58
+ 0.635714 0 3 cbr 500 ------- 0 0.0 15.0 60 60
- 0.635714 0 3 cbr 500 ------- 0 0.0 15.0 60 60
r 0.636929 3 15 cbr 500 ------- 0 0.0 15.0 57 57
r 0.640786 0 3 cbr 500 ------- 0 0.0 15.0 59 59
+ 0.640786 3 15 cbr 500 ------- 0 0.0 15.0 59 59
- 0.640786 3 15 cbr 500 ------- 0 0.0 15.0 59 59
+ 0.644643 0 3 cbr 500 ------- 0 0.0 15.0 61 61
- 0.644643 0 3 cbr 500 ------- 0 0.0 15.0 61 61
r 0.645857 3 15 cbr 500 ------- 0 0.0 15.0 58 58
r 0.649714 0 3 cbr 500 ------- 0 0.0 15.0 60 60
+ 0.649714 3 15 cbr 500 ------- 0 0.0 15.0 60 60
- 0.649714 3 15 cbr 500 ------- 0 0.0 15.0 60 60
+ 0.653571 0 3 cbr 500 ------- 0 0.0 15.0 62 62
- 0.653571 0 3 cbr 500 ------- 0 0.0 15.0 62 62
r 0.654786 3 15 cbr 500 ------- 0 0.0 15.0 59 59
r 0.658643 0 3 cbr 500 ------- 0 0.0 15.0 61 61
+ 0.658643 3 15 cbr 500 ------- 0 0.0 15.0 61 61
- 0.658643 3 15 cbr 500 ------- 0 0.0 15.0 61 61
+ 0.6625 0 3 cbr 500 ------- 0 0.0 15.0 63 63
- 0.6625 0 3 cbr 500 ------- 0 0.0 15.0 63 63
r 0.663714 3 15 cbr 500 ------- 0 0.0 15.0 60 60
r 0.667571 0 3 cbr 500 ------- 0 0.0 15.0 62 62
+ 0.667571 3 15 cbr 500 ------- 0 0.0 15.0 62 62
- 0.667571 3 15 cbr 500 ------- 0 0.0 15.0 62 62
+ 0.671429 0 3 cbr 500 ------- 0 0.0 15.0 64 64
- 0.671429 0 3 cbr 500 ------- 0 0.0 15.0 64 64
r 0.672643 3 15 cbr 500 ------- 0 0.0 15.0 61 61
r 0.6765 0 3 cbr 500 ------- 0 0.0 15.0 63 63
+ 0.6765 3 15 cbr 500 ------- 0 0.0 15.0 63 63
- 0.6765 3 15 cbr 500 ------- 0 0.0 15.0 63 63
+ 0.680357 0 3 cbr 500 ------- 0 0.0 15.0 65 65
- 0.680357 0 3 cbr 500 ------- 0 0.0 15.0 65 65
r 0.681571 3 15 cbr 500 ------- 0 0.0 15.0 62 62
r 0.685429 0 3 cbr 500 ------- 0 0.0 15.0 64 64
+ 0.685429 3 15 cbr 500 ------- 0 0.0 15.0 64 64
- 0.685429 3 15 cbr 500 ------- 0 0.0 15.0 64 64
+ 0.689286 0 3 cbr 500 ------- 0 0.0 15.0 66 66
- 0.689286 0 3 cbr 500 ------- 0 0.0 15.0 66 66
r 0.6905 3 15 cbr 500 ------- 0 0.0 15.0 63 63
r 0.694357 0 3 cbr 500 ------- 0 0.0 15.0 65 65
+ 0.694357 3 15 cbr 500 ------- 0 0.0 15.0 65 65
- 0.694357 3 15 cbr 500 ------- 0 0.0 15.0 65 65
+ 0.698214 0 3 cbr 500 ------- 0 0.0 15.0 67 67
- 0.698214 0 3 cbr 500 ------- 0 0.0 15.0 67 67
r 0.699429 3 15 cbr 500 ------- 0 0.0 15.0 64 64
r 0.703286 0 3 cbr 500 ------- 0 0.0 15.0 66 66
+ 0.703286 3 15 cbr 500 ------- 0 0.0 15.0 66 66
- 0.703286 3 15 cbr 500 ------- 0 0.0 15.0 66 66
+ 0.707143 0 3 cbr 500 ------- 0 0.0 15.0 68 68
- 0.707143 0 3 cbr 500 ------- 0 0.0 15.0 68 68
r 0.708357 3 15 cbr 500 ------- 0 0.0 15.0 65 65
r 0.712214 0 3 cbr 500 ------- 0 0.0 15.0 67 67
+ 0.712214 3 15 cbr 500 ------- 0 0.0 15.0 67 67
- 0.712214 3 15 cbr 500 ------- 0 0.0 15.0 67 67
+ 0.716071 0 3 cbr 500 ------- 0 0.0 15.0 69 69
- 0.716071 0 3 cbr 500 ------- 0 0.0 15.0 69 69
r 0.717286 3 15 cbr 500 ------- 0 0.0 15.0 66 66
r 0.721143 0 3 cbr 500 ------- 0 0.0 15.0 68 68
+ 0.721143 3 15 cbr 500 ------- 0 0.0 15.0 68 68
- 0.721143 3 15 cbr 500 ------- 0 0.0 15.0 68 68
+ 0.725 0 3 cbr 500 ------- 0 0.0 15.0 70 70
- 0.725 0 3 cbr 500 ------- 0 0.0 15.0 70 70
r 0.726214 3 15 cbr 500 ------- 0 0.0 15.0 67 67
r 0.730071 0 3 cbr 500 ------- 0 0.0 15.0 69 69
+ 0.730071 3 15 cbr 500 ------- 0 0.0 15.0 69 69
- 0.730071 3 15 cbr 500 ------- 0 0.0 15.0 69 69
+ 0.733929 0 3 cbr 500 ------- 0 0.0 15.0 71 71
- 0.733929 0 3 cbr 500 ------- 0 0.0 15.0 71 71
r 0.735143 3 15 cbr 500 ------- 0 0.0 15.0 68 68
r 0.739 0 3 cbr 500 ------- 0 0.0 15.0 70 70
+ 0.739 3 15 cbr 500 ------- 0 0.0 15.0 70 70
- 0.739 3 15 cbr 500 ------- 0 0.0 15.0 70 70
+ 0.742857 0 3 cbr 500 ------- 0 0.0 15.0 72 72
- 0.742857 0 3 cbr 500 ------- 0 0.0 15.0 72 72
r 0.744071 3 15 cbr 500 ------- 0 0.0 15.0 69 69
r 0.747929 0 3 cbr 500 ------- 0 0.0 15.0 71 71
+ 0.747929 3 15 cbr 500 ------- 0 0.0 15.0 71 71
- 0.747929 3 15 cbr 500 ------- 0 0.0 15.0 71 71
+ 0.751786 0 3 cbr 500 ------- 0 0.0 15.0 73 73
- 0.751786 0 3 cbr 500 ------- 0 0.0 15.0 73 73
r 0.753 3 15 cbr 500 ------- 0 0.0 15.0 70 70
r 0.756857 0 3 cbr 500 ------- 0 0.0 15.0 72 72
+ 0.756857 3 15 cbr 500 ------- 0 0.0 15.0 72 72
- 0.756857 3 15 cbr 500 ------- 0 0.0 15.0 72 72
+ 0.760714 0 3 cbr 500 ------- 0 0.0 15.0 74 74
- 0.760714 0 3 cbr 500 ------- 0 0.0 15.0 74 74
r 0.761929 3 15 cbr 500 ------- 0 0.0 15.0 71 71
r 0.765786 0 3 cbr 500 ------- 0 0.0 15.0 73 73
+ 0.765786 3 15 cbr 500 ------- 0 0.0 15.0 73 73
- 0.765786 3 15 cbr 500 ------- 0 0.0 15.0 73 73
+ 0.769643 0 3 cbr 500 ------- 0 0.0 15.0 75 75
- 0.769643 0 3 cbr 500 ------- 0 0.0 15.0 75 75
r 0.770857 3 15 cbr 500 ------- 0 0.0 15.0 72 72
r 0.774714 0 3 cbr 500 ------- 0 0.0 15.0 74 74
+ 0.774714 3 15 cbr 500 ------- 0 0.0 15.0 74 74
- 0.774714 3 15 cbr 500 ------- 0 0.0 15.0 74 74
+ 0.778571 0 3 cbr 500 ------- 0 0.0 15.0 76 76
- 0.778571 0 3 cbr 500 ------- 0 0.0 15.0 76 76
r 0.779786 3 15 cbr 500 ------- 0 0.0 15.0 73 73
r 0.783643 0 3 cbr 500 ------- 0 0.0 15.0 75 75
+ 0.783643 3 15 cbr 500 ------- 0 0.0 15.0 75 75
- 0.783643 3 15 cbr 500 ------- 0 0.0 15.0 75 75
+ 0.7875 0 3 cbr 500 ------- 0 0.0 15.0 77 77
- 0.7875 0 3 cbr 500 ------- 0 0.0 15.0 77 77
r 0.788714 3 15 cbr 500 ------- 0 0.0 15.0 74 74
r 0.792571 0 3 cbr 500 ------- 0 0.0 15.0 76 76
+ 0.792571 3 15 cbr 500 ------- 0 0.0 15.0 76 76
- 0.792571 3 15 cbr 500 ------- 0 0.0 15.0 76 76
+ 0.796429 0 3 cbr 500 ------- 0 0.0 15.0 78 78
- 0.796429 0 3 cbr 500 ------- 0 0.0 15.0 78 78
r 0.797643 3 15 cbr 500 ------- 0 0.0 15.0 75 75
r 0.8015 0 3 cbr 500 ------- 0 0.0 15.0 77 77
+ 0.8015 3 15 cbr 500 ------- 0 0.0 15.0 77 77
- 0.8015 3 15 cbr 500 ------- 0 0.0 15.0 77 77
+ 0.805357 0 3 cbr 500 ------- 0 0.0 15.0 79 79
- 0.805357 0 3 cbr 500 ------- 0 0.0 15.0 79 79
r 0.806571 3 15 cbr 500 ------- 0 0.0 15.0 76 76
r 0.810429 0 3 cbr 500 ------- 0 0.0 15.0 78 78
+ 0.810429 3 15 cbr 500 ------- 0 0.0 15.0 78 78
- 0.810429 3 15 cbr 500 ------- 0 0.0 15.0 78 78
+ 0.814286 0 3 cbr 500 ------- 0 0.0 15.0 80 80
- 0.814286 0 3 cbr 500 ------- 0 0.0 15.0 80 80
r 0.8155 3 15 cbr 500 ------- 0 0.0 15.0 77 77
r 0.819357 0 3 cbr 500 ------- 0 0.0 15.0 79 79
+ 0.819357 3 15 cbr 500 ------- 0 0.0 15.0 79 79
- 0.819357 3 15 cbr 500 ------- 0 0.0 15.0 79 79
+ 0.823214 0 3 cbr 500 ------- 0 0.0 15.0 81 81
- 0.823214 0 3 cbr 500 ------- 0 0.0 15.0 81 81
r 0.824429 3 15 cbr 500 ------- 0 0.0 15.0 78 78
r 0.828286 0 3 cbr 500 ------- 0 0.0 15.0 80 80
+ 0.828286 3 15 cbr 500 ------- 0 0.0 15.0 80 80
- 0.828286 3 15 cbr 500 ------- 0 0.0 15.0 80 80
+ 0.832143 0 3 cbr 500 ------- 0 0.0 15.0 82 82
- 0.832143 0 3 cbr 500 ------- 0 0.0 15.0 82 82
r 0.833357 3 15 cbr 500 ------- 0 0.0 15.0 79 79
r 0.837214 0 3 cbr 500 ------- 0 0.0 15.0 81 81
+ 0.837214 3 15 cbr 500 ------- 0 0.0 15.0 81 81
- 0.837214 3 15 cbr 500 ------- 0 0.0 15.0 81 81
+ 0.841071 0 3 cbr 500 ------- 0 0.0 15.0 83 83
- 0.841071 0 3 cbr 500 ------- 0 0.0 15.0 83 83
r 0.842286 3 15 cbr 500 ------- 0 0.0 15.0 80 80
r 0.846143 0 3 cbr 500 ------- 0 0.0 15.0 82 82
+ 0.846143 3 15 cbr 500 ------- 0 0.0 15.0 82 82
- 0.846143 3 15 cbr 500 ------- 0 0.0 15.0 82 82
+ 0.85 0 3 cbr 500 ------- 0 0.0 15.0 84 84
- 0.85 0 3 cbr 500 ------- 0 0.0 15.0 84 84
r 0.851214 3 15 cbr 500 ------- 0 0.0 15.0 81 81
r 0.855071 0 3 cbr 500 ------- 0 0.0 15.0 83 83
+ 0.855071 3 15 cbr 500 ------- 0 0.0 15.0 83 83
- 0.855071 3 15 cbr 500 ------- 0 0.0 15.0 83 83
+ 0.858929 0 3 cbr 500 ------- 0 0.0 15.0 85 85
- 0.858929 0 3 cbr 500 ------- 0 0.0 15.0 85 85
r 0.860143 3 15 cbr 500 ------- 0 0.0 15.0 82 82
r 0.864 0 3 cbr 500 ------- 0 0.0 15.0 84 84
+ 0.864 3 15 cbr 500 ------- 0 0.0 15.0 84 84
- 0.864 3 15 cbr 500 ------- 0 0.0 15.0 84 84
+ 0.867857 0 3 cbr 500 ------- 0 0.0 15.0 86 86
- 0.867857 0 3 cbr 500 ------- 0 0.0 15.0 86 86
r 0.869071 3 15 cbr 500 ------- 0 0.0 15.0 83 83
r 0.872929 0 3 cbr 500 ------- 0 0.0 15.0 85 85
+ 0.872929 3 15 cbr 500 ------- 0 0.0 15.0 85 85
- 0.872929 3 15 cbr 500 ------- 0 0.0 15.0 85 85
+ 0.876786 0 3 cbr 500 ------- 0 0.0 15.0 87 87
- 0.876786 0 3 cbr 500 ------- 0 0.0 15.0 87 87
r 0.878 3 15 cbr 500 ------- 0 0.0 15.0 84 84
r 0.881857 0 3 cbr 500 ------- 0 0.0 15.0 86 86
+ 0.881857 3 15 cbr 500 ------- 0 0.0 15.0 86 86
- 0.881857 3 15 cbr 500 ------- 0 0.0 15.0 86 86
+ 0.885714 0 3 cbr 500 ------- 0 0.0 15.0 88 88
- 0.885714 0 3 cbr 500 ------- 0 0.0 15.0 88 88
r 0.886929 3 15 cbr 500 ------- 0 0.0 15.0 85 85
r 0.890786 0 3 cbr 500 ------- 0 0.0 15.0 87 87
+ 0.890786 3 15 cbr 500 ------- 0 0.0 15.0 87 87
- 0.890786 3 15 cbr 500 ------- 0 0.0 15.0 87 87
+ 0.894643 0 3 cbr 500 ------- 0 0.0 15.0 89 89
- 0.894643 0 3 cbr 500 ------- 0 0.0 15.0 89 89
r 0.895857 3 15 cbr 500 ------- 0 0.0 15.0 86 86
r 0.899714 0 3 cbr 500 ------- 0 0.0 15.0 88 88
+ 0.899714 3 15 cbr 500 ------- 0 0.0 15.0 88 88
- 0.899714 3 15 cbr 500 ------- 0 0.0 15.0 88 88
+ 0.903571 0 3 cbr 500 ------- 0 0.0 15.0 90 90
- 0.903571 0 3 cbr 500 ------- 0 0.0 15.0 90 90
r 0.904786 3 15 cbr 500 ------- 0 0.0 15.0 87 87
r 0.908643 0 3 cbr 500 ------- 0 0.0 15.0 89 89
+ 0.908643 3 15 cbr 500 ------- 0 0.0 15.0 89 89
- 0.908643 3 15 cbr 500 ------- 0 0.0 15.0 89 89
+ 0.9125 0 3 cbr 500 ------- 0 0.0 15.0 91 91
- 0.9125 0 3 cbr 500 ------- 0 0.0 15.0 91 91
r 0.913714 3 15 cbr 500 ------- 0 0.0 15.0 88 88
r 0.917571 0 3 cbr 500 ------- 0 0.0 15.0 90 90
+ 0.917571 3 15 cbr 500 ------- 0 0.0 15.0 90 90
- 0.917571 3 15 cbr 500 ------- 0 0.0 15.0 90 90
+ 0.921429 0 3 cbr 500 ------- 0 0.0 15.0 92 92
- 0.921429 0 3 cbr 500 ------- 0 0.0 15.0 92 92
r 0.922643 3 15 cbr 500 ------- 0 0.0 15.0 89 89
r 0.9265 0 3 cbr 500 ------- 0 0.0 15.0 91 91
+ 0.9265 3 15 cbr 500 ------- 0 0.0 15.0 91 91
- 0.9265 3 15 cbr 500 ------- 0 0.0 15.0 91 91
+ 0.930357 0 3 cbr 500 ------- 0 0.0 15.0 93 93
- 0.930357 0 3 cbr 500 ------- 0 0.0 15.0 93 93
r 0.931571 3 15 cbr 500 ------- 0 0.0 15.0 90 90
r 0.935429 0 3 cbr 500 ------- 0 0.0 15.0 92 92
+ 0.935429 3 15 cbr 500 ------- 0 0.0 15.0 92 92
- 0.935429 3 15 cbr 500 ------- 0 0.0 15.0 92 92
+ 0.939286 0 3 cbr 500 ------- 0 0.0 15.0 94 94
- 0.939286 0 3 cbr 500 ------- 0 0.0 15.0 94 94
r 0.9405 3 15 cbr 500 ------- 0 0.0 15.0 91 91
r 0.944357 0 3 cbr 500 ------- 0 0.0 15.0 93 93
+ 0.944357 3 15 cbr 500 ------- 0 0.0 15.0 93 93
- 0.944357 3 15 cbr 500 ------- 0 0.0 15.0 93 93
+ 0.948214 0 3 cbr 500 ------- 0 0.0 15.0 95 95
- 0.948214 0 3 cbr 500 ------- 0 0.0 15.0 95 95
r 0.949429 3 15 cbr 500 ------- 0 0.0 15.0 92 92
r 0.953286 0 3 cbr 500 ------- 0 0.0 15.0 94 94
+ 0.953286 3 15 cbr 500 ------- 0 0.0 15.0 94 94
- 0.953286 3 15 cbr 500 ------- 0 0.0 15.0 94 94
+ 0.957143 0 3 cbr 500 ------- 0 0.0 15.0 96 96
- 0.957143 0 3 cbr 500 ------- 0 0.0 15.0 96 96
r 0.958357 3 15 cbr 500 ------- 0 0.0 15.0 93 93
r 0.962214 0 3 cbr 500 ------- 0 0.0 15.0 95 95
+ 0.962214 3 15 cbr 500 ------- 0 0.0 15.0 95 95
- 0.962214 3 15 cbr 500 ------- 0 0.0 15.0 95 95
+ 0.966071 0 3 cbr 500 ------- 0 0.0 15.0 97 97
- 0.966071 0 3 cbr 500 ------- 0 0.0 15.0 97 97
r 0.967286 3 15 cbr 500 ------- 0 0.0 15.0 94 94
r 0.971143 0 3 cbr 500 ------- 0 0.0 15.0 96 96
+ 0.971143 3 15 cbr 500 ------- 0 0.0 15.0 96 96
- 0.971143 3 15 cbr 500 ------- 0 0.0 15.0 96 96
+ 0.975 0 3 cbr 500 ------- 0 0.0 15.0 98 98
- 0.975 0 3 cbr 500 ------- 0 0.0 15.0 98 98
r 0.976214 3 15 cbr 500 ------- 0 0.0 15.0 95 95
r 0.980071 0 3 cbr 500 ------- 0 0.0 15.0 97 97
+ 0.980071 3 15 cbr 500 ------- 0 0.0 15.0 97 97
- 0.980071 3 15 cbr 500 ------- 0 0.0 15.0 97 97
+ 0.983929 0 3 cbr 500 ------- 0 0.0 15.0 99 99
- 0.983929 0 3 cbr 500 ------- 0 0.0 15.0 99 99
r 0.985143 3 15 cbr 500 ------- 0 0.0 15.0 96 96
r 0.989 0 3 cbr 500 ------- 0 0.0 15.0 98 98
+ 0.989 3 15 cbr 500 ------- 0 0.0 15.0 98 98
- 0.989 3 15 cbr 500 ------- 0 0.0 15.0 98 98
+ 0.992857 0 3 cbr 500 ------- 0 0.0 15.0 100 100
- 0.992857 0 3 cbr 500 ------- 0 0.0 15.0 100 100
r 0.994071 3 15 cbr 500 ------- 0 0.0 15.0 97 97
r 0.997929 0 3 cbr 500 ------- 0 0.0 15.0 99 99
+ 0.997929 3 15 cbr 500 ------- 0 0.0 15.0 99 99
- 0.997929 3 15 cbr 500 ------- 0 0.0 15.0 99 99
+ 1.001786 0 3 cbr 500 ------- 0 0.0 15.0 101 101
- 1.001786 0 3 cbr 500 ------- 0 0.0 15.0 101 101
r 1.003 3 15 cbr 500 ------- 0 0.0 15.0 98 98
r 1.006857 0 3 cbr 500 ------- 0 0.0 15.0 100 100
+ 1.006857 3 15 cbr 500 ------- 0 0.0 15.0 100 100
- 1.006857 3 15 cbr 500 ------- 0 0.0 15.0 100 100
+ 1.010714 0 3 cbr 500 ------- 0 0.0 15.0 102 102
- 1.010714 0 3 cbr 500 ------- 0 0.0 15.0 102 102
r 1.011929 3 15 cbr 500 ------- 0 0.0 15.0 99 99
r 1.015786 0 3 cbr 500 ------- 0 0.0 15.0 101 101
+ 1.015786 3 15 cbr 500 ------- 0 0.0 15.0 101 101
- 1.015786 3 15 cbr 500 ------- 0 0.0 15.0 101 101
+ 1.019643 0 3 cbr 500 ------- 0 0.0 15.0 103 103
- 1.019643 0 3 cbr 500 ------- 0 0.0 15.0 103 103
r 1.020857 3 15 cbr 500 ------- 0 0.0 15.0 100 100
r 1.024714 0 3 cbr 500 ------- 0 0.0 15.0 102 102
+ 1.024714 3 15 cbr 500 ------- 0 0.0 15.0 102 102
- 1.024714 3 15 cbr 500 ------- 0 0.0 15.0 102 102
+ 1.028571 0 3 cbr 500 ------- 0 0.0 15.0 104 104
- 1.028571 0 3 cbr 500 ------- 0 0.0 15.0 104 104
r 1.029786 3 15 cbr 500 ------- 0 0.0 15.0 101 101
r 1.033643 0 3 cbr 500 ------- 0 0.0 15.0 103 103
+ 1.033643 3 15 cbr 500 ------- 0 0.0 15.0 103 103
- 1.033643 3 15 cbr 500 ------- 0 0.0 15.0 103 103
+ 1.0375 0 3 cbr 500 ------- 0 0.0 15.0 105 105