V -t * -v 1.0a5 -a 0
W -t * -x 10 -y 10
A -t * -n 1 -p 0 -o 0x7fffffff -c 30 -a 1
A -t * -h 1 -m 1073741823 -s 0
c -t * -i 4 -n magenta
c -t * -i 1 -n Green
c -t * -i 2 -n Red
c -t * -i 3 -n blue
n -t * -a 17 -s 17 -S UP -v circle -c black -i black
n -t * -a 0 -s 0 -S UP -v circle -c black -i black -x 0.0 -y 0.0
n -t * -a 18 -s 18 -S UP -v circle -c black -i black
n -t * -a 1 -s 1 -S UP -v circle -c black -i black -x 10.0 -y 10.0
n -t * -a 20 -s 20 -S UP -v circle -c black -i black
n -t * -a 19 -s 19 -S UP -v circle -c black -i black
n -t * -a 2 -s 2 -S UP -v circle -c black -i black
n -t * -a 3 -s 3 -S UP -v circle -c black -i black
n -t * -a 4 -s 4 -S UP -v circle -c black -i black
n -t * -a 5 -s 5 -S UP -v circle -c black -i black
n -t * -a 6 -s 6 -S UP -v circle -c black -i black
n -t * -a 7 -s 7 -S UP -v circle -c black -i black
n -t * -a 8 -s 8 -S UP -v circle -c black -i black
n -t * -a 9 -s 9 -S UP -v circle -c black -i black
n -t * -a 10 -s 10 -S UP -v circle -c black -i black
n -t * -a 11 -s 11 -S UP -v circle -c black -i black
n -t * -a 12 -s 12 -S UP -v circle -c black -i black
n -t * -a 13 -s 13 -S UP -v circle -c black -i black
n -t * -a 14 -s 14 -S UP -v circle -c black -i black
n -t * -a 15 -s 15 -S UP -v circle -c black -i black
n -t * -a 16 -s 16 -S UP -v circle -c black -i black
l -t * -s 0 -d 1 -S UP -r 1000000 -D 0.01 -c black
l -t * -s 0 -d 2 -S UP -r 1000000 -D 0.01 -c black
l -t * -s 0 -d 3 -S UP -r 1000000 -D 0.01 -c black
l -t * -s 0 -d 4 -S UP -r 1000000 -D 0.01 -c black
l -t * -s 1 -d 5 -S UP -r 1000000 -D 0.01 -c black
l -t * -s 1 -d 7 -S UP -r 1000000 -D 0.01 -c black
l -t * -s 1 -d 9 -S UP -r 1000000 -D 0.01 -c black
l -t * -s 1 -d 11 -S UP -r 1000000 -D 0.01 -c black
l -t * -s 2 -d 5 -S UP -r 1000000 -D 0.01 -c black
l -t * -s 2 -d 7 -S UP -r 1000000 -D 0.01 -c black
l -t * -s 2 -d 9 -S UP -r 1000000 -D 0.01 -c black
l -t * -s 2 -d 11 -S UP -r 1000000 -D 0.01 -c black
l -t * -s 3 -d 6 -S UP -r 1000000 -D 0.01 -c black
l -t * -s 3 -d 8 -S UP -r 1000000 -D 0.01 -c black
l -t * -s 3 -d 10 -S UP -r 1000000 -D 0.01 -c black
l -t * -s 3 -d 12 -S UP -r 1000000 -D 0.01 -c black
l -t * -s 4 -d 6 -S UP -r 1000000 -D 0.01 -c black
l -t * -s 4 -d 8 -S UP -r 1000000 -D 0.01 -c black
l -t * -s 4 -d 10 -S UP -r 1000000 -D 0.01 -c black
l -t * -s 4 -d 12 -S UP -r 1000000 -D 0.01 -c black
l -t * -s 5 -d 13 -S UP -r 1000000 -D 0.01 -c black
l -t * -s 5 -d 14 -S UP -r 1000000 -D 0.01 -c black
l -t * -s 6 -d 13 -S UP -r 1000000 -D 0.01 -c black
l -t * -s 6 -d 14 -S UP -r 1000000 -D 0.01 -c black
l -t * -s 7 -d 15 -S UP -r 1000000 -D 0.01 -c black
l -t * -s 7 -d 16 -S UP -r 1000000 -D 0.01 -c black
l -t * -s 8 -d 15 -S UP -r 1000000 -D 0.01 -c black
l -t * -s 8 -d 16 -S UP -r 1000000 -D 0.01 -c black
l -t * -s 9 -d 17 -S UP -r 1000000 -D 0.01 -c black
l -t * -s 9 -d 18 -S UP -r 1000000 -D 0.01 -c black
l -t * -s 10 -d 17 -S UP -r 1000000 -D 0.01 -c black
l -t * -s 10 -d 18 -S UP -r 1000000 -D 0.01 -c black
l -t * -s 11 -d 19 -S UP -r 1000000 -D 0.01 -c black
l -t * -s 11 -d 20 -S UP -r 1000000 -D 0.01 -c black
l -t * -s 12 -d 19 -S UP -r 1000000 -D 0.01 -c black
l -t * -s 12 -d 20 -S UP -r 1000000 -D 0.01 -c black
+ -t 0.000169788487334637 -s 0 -d 1 -p rtProtoDV -e 21 -c 0 -i 2 -a 0 -x {0.3 1.1 -1 ------- null}
- -t 0.000169788487334637 -s 0 -d 1 -p rtProtoDV -e 21 -c 0 -i 2 -a 0 -x {0.3 1.1 -1 ------- null}
h -t 0.000169788487334637 -s 0 -d 1 -p rtProtoDV -e 21 -c 0 -i 2 -a 0 -x {0.3 1.1 -1 ------- null}
+ -t 0.000169788487334637 -s 0 -d 2 -p rtProtoDV -e 21 -c 0 -i 3 -a 0 -x {0.3 2.1 -1 ------- null}
- -t 0.000169788487334637 -s 0 -d 2 -p rtProtoDV -e 21 -c 0 -i 3 -a 0 -x {0.3 2.1 -1 ------- null}
h -t 0.000169788487334637 -s 0 -d 2 -p rtProtoDV -e 21 -c 0 -i 3 -a 0 -x {0.3 2.1 -1 ------- null}
+ -t 0.000169788487334637 -s 0 -d 3 -p rtProtoDV -e 21 -c 0 -i 4 -a 0 -x {0.3 3.1 -1 ------- null}
- -t 0.000169788487334637 -s 0 -d 3 -p rtProtoDV -e 21 -c 0 -i 4 -a 0 -x {0.3 3.1 -1 ------- null}
h -t 0.000169788487334637 -s 0 -d 3 -p rtProtoDV -e 21 -c 0 -i 4 -a 0 -x {0.3 3.1 -1 ------- null}
+ -t 0.000169788487334637 -s 0 -d 4 -p rtProtoDV -e 21 -c 0 -i 5 -a 0 -x {0.3 4.1 -1 ------- null}
- -t 0.000169788487334637 -s 0 -d 4 -p rtProtoDV -e 21 -c 0 -i 5 -a 0 -x {0.3 4.1 -1 ------- null}
h -t 0.000169788487334637 -s 0 -d 4 -p rtProtoDV -e 21 -c 0 -i 5 -a 0 -x {0.3 4.1 -1 ------- null}
+ -t 0.00710233021858257 -s 2 -d 0 -p rtProtoDV -e 21 -c 0 -i 6 -a 0 -x {2.1 0.3 -1 ------- null}
- -t 0.00710233021858257 -s 2 -d 0 -p rtProtoDV -e 21 -c 0 -i 6 -a 0 -x {2.1 0.3 -1 ------- null}
h -t 0.00710233021858257 -s 2 -d 0 -p rtProtoDV -e 21 -c 0 -i 6 -a 0 -x {2.1 0.3 -1 ------- null}
+ -t 0.00710233021858257 -s 2 -d 5 -p rtProtoDV -e 21 -c 0 -i 7 -a 0 -x {2.1 5.1 -1 ------- null}
- -t 0.00710233021858257 -s 2 -d 5 -p rtProtoDV -e 21 -c 0 -i 7 -a 0 -x {2.1 5.1 -1 ------- null}
h -t 0.00710233021858257 -s 2 -d 5 -p rtProtoDV -e 21 -c 0 -i 7 -a 0 -x {2.1 5.1 -1 ------- null}
+ -t 0.00710233021858257 -s 2 -d 7 -p rtProtoDV -e 21 -c 0 -i 8 -a 0 -x {2.1 7.1 -1 ------- null}
- -t 0.00710233021858257 -s 2 -d 7 -p rtProtoDV -e 21 -c 0 -i 8 -a 0 -x {2.1 7.1 -1 ------- null}
h -t 0.00710233021858257 -s 2 -d 7 -p rtProtoDV -e 21 -c 0 -i 8 -a 0 -x {2.1 7.1 -1 ------- null}
+ -t 0.00710233021858257 -s 2 -d 9 -p rtProtoDV -e 21 -c 0 -i 9 -a 0 -x {2.1 9.1 -1 ------- null}
- -t 0.00710233021858257 -s 2 -d 9 -p rtProtoDV -e 21 -c 0 -i 9 -a 0 -x {2.1 9.1 -1 ------- null}
h -t 0.00710233021858257 -s 2 -d 9 -p rtProtoDV -e 21 -c 0 -i 9 -a 0 -x {2.1 9.1 -1 ------- null}
+ -t 0.00710233021858257 -s 2 -d 11 -p rtProtoDV -e 21 -c 0 -i 10 -a 0 -x {2.1 11.1 -1 ------- null}
- -t 0.00710233021858257 -s 2 -d 11 -p rtProtoDV -e 21 -c 0 -i 10 -a 0 -x {2.1 11.1 -1 ------- null}
h -t 0.00710233021858257 -s 2 -d 11 -p rtProtoDV -e 21 -c 0 -i 10 -a 0 -x {2.1 11.1 -1 ------- null}
r -t 0.0103377884873346 -s 0 -d 1 -p rtProtoDV -e 21 -c 0 -i 2 -a 0 -x {0.3 1.1 -1 ------- null}
+ -t 0.0103377884873346 -s 1 -d 0 -p rtProtoDV -e 21 -c 0 -i 13 -a 0 -x {1.1 0.3 -1 ------- null}
- -t 0.0103377884873346 -s 1 -d 0 -p rtProtoDV -e 21 -c 0 -i 13 -a 0 -x {1.1 0.3 -1 ------- null}
h -t 0.0103377884873346 -s 1 -d 0 -p rtProtoDV -e 21 -c 0 -i 13 -a 0 -x {1.1 0.3 -1 ------- null}
+ -t 0.0103377884873346 -s 1 -d 5 -p rtProtoDV -e 21 -c 0 -i 14 -a 0 -x {1.1 5.1 -1 ------- null}
- -t 0.0103377884873346 -s 1 -d 5 -p rtProtoDV -e 21 -c 0 -i 14 -a 0 -x {1.1 5.1 -1 ------- null}
h -t 0.0103377884873346 -s 1 -d 5 -p rtProtoDV -e 21 -c 0 -i 14 -a 0 -x {1.1 5.1 -1 ------- null}
+ -t 0.0103377884873346 -s 1 -d 7 -p rtProtoDV -e 21 -c 0 -i 15 -a 0 -x {1.1 7.1 -1 ------- null}
- -t 0.0103377884873346 -s 1 -d 7 -p rtProtoDV -e 21 -c 0 -i 15 -a 0 -x {1.1 7.1 -1 ------- null}
h -t 0.0103377884873346 -s 1 -d 7 -p rtProtoDV -e 21 -c 0 -i 15 -a 0 -x {1.1 7.1 -1 ------- null}
+ -t 0.0103377884873346 -s 1 -d 9 -p rtProtoDV -e 21 -c 0 -i 16 -a 0 -x {1.1 9.1 -1 ------- null}
- -t 0.0103377884873346 -s 1 -d 9 -p rtProtoDV -e 21 -c 0 -i 16 -a 0 -x {1.1 9.1 -1 ------- null}
h -t 0.0103377884873346 -s 1 -d 9 -p rtProtoDV -e 21 -c 0 -i 16 -a 0 -x {1.1 9.1 -1 ------- null}
+ -t 0.0103377884873346 -s 1 -d 11 -p rtProtoDV -e 21 -c 0 -i 17 -a 0 -x {1.1 11.1 -1 ------- null}
- -t 0.0103377884873346 -s 1 -d 11 -p rtProtoDV -e 21 -c 0 -i 17 -a 0 -x {1.1 11.1 -1 ------- null}
h -t 0.0103377884873346 -s 1 -d 11 -p rtProtoDV -e 21 -c 0 -i 17 -a 0 -x {1.1 11.1 -1 ------- null}
r -t 0.0103377884873346 -s 0 -d 2 -p rtProtoDV -e 21 -c 0 -i 3 -a 0 -x {0.3 2.1 -1 ------- null}
+ -t 0.0103377884873346 -s 2 -d 0 -p rtProtoDV -e 21 -c 0 -i 18 -a 0 -x {2.1 0.3 -1 ------- null}
- -t 0.0103377884873346 -s 2 -d 0 -p rtProtoDV -e 21 -c 0 -i 18 -a 0 -x {2.1 0.3 -1 ------- null}
h -t 0.0103377884873346 -s 2 -d 0 -p rtProtoDV -e 21 -c 0 -i 18 -a 0 -x {2.1 0.3 -1 ------- null}
+ -t 0.0103377884873346 -s 2 -d 5 -p rtProtoDV -e 21 -c 0 -i 19 -a 0 -x {2.1 5.1 -1 ------- null}
- -t 0.0103377884873346 -s 2 -d 5 -p rtProtoDV -e 21 -c 0 -i 19 -a 0 -x {2.1 5.1 -1 ------- null}
h -t 0.0103377884873346 -s 2 -d 5 -p rtProtoDV -e 21 -c 0 -i 19 -a 0 -x {2.1 5.1 -1 ------- null}
+ -t 0.0103377884873346 -s 2 -d 7 -p rtProtoDV -e 21 -c 0 -i 20 -a 0 -x {2.1 7.1 -1 ------- null}
- -t 0.0103377884873346 -s 2 -d 7 -p rtProtoDV -e 21 -c 0 -i 20 -a 0 -x {2.1 7.1 -1 ------- null}
h -t 0.0103377884873346 -s 2 -d 7 -p rtProtoDV -e 21 -c 0 -i 20 -a 0 -x {2.1 7.1 -1 ------- null}
+ -t 0.0103377884873346 -s 2 -d 9 -p rtProtoDV -e 21 -c 0 -i 21 -a 0 -x {2.1 9.1 -1 ------- null}
- -t 0.0103377884873346 -s 2 -d 9 -p rtProtoDV -e 21 -c 0 -i 21 -a 0 -x {2.1 9.1 -1 ------- null}
h -t 0.0103377884873346 -s 2 -d 9 -p rtProtoDV -e 21 -c 0 -i 21 -a 0 -x {2.1 9.1 -1 ------- null}
+ -t 0.0103377884873346 -s 2 -d 11 -p rtProtoDV -e 21 -c 0 -i 22 -a 0 -x {2.1 11.1 -1 ------- null}
- -t 0.0103377884873346 -s 2 -d 11 -p rtProtoDV -e 21 -c 0 -i 22 -a 0 -x {2.1 11.1 -1 ------- null}
h -t 0.0103377884873346 -s 2 -d 11 -p rtProtoDV -e 21 -c 0 -i 22 -a 0 -x {2.1 11.1 -1 ------- null}
r -t 0.0103377884873346 -s 0 -d 3 -p rtProtoDV -e 21 -c 0 -i 4 -a 0 -x {0.3 3.1 -1 ------- null}
+ -t 0.0103377884873346 -s 3 -d 0 -p rtProtoDV -e 21 -c 0 -i 23 -a 0 -x {3.1 0.3 -1 ------- null}
- -t 0.0103377884873346 -s 3 -d 0 -p rtProtoDV -e 21 -c 0 -i 23 -a 0 -x {3.1 0.3 -1 ------- null}
h -t 0.0103377884873346 -s 3 -d 0 -p rtProtoDV -e 21 -c 0 -i 23 -a 0 -x {3.1 0.3 -1 ------- null}
+ -t 0.0103377884873346 -s 3 -d 6 -p rtProtoDV -e 21 -c 0 -i 24 -a 0 -x {3.1 6.1 -1 ------- null}
- -t 0.0103377884873346 -s 3 -d 6 -p rtProtoDV -e 21 -c 0 -i 24 -a 0 -x {3.1 6.1 -1 ------- null}
h -t 0.0103377884873346 -s 3 -d 6 -p rtProtoDV -e 21 -c 0 -i 24 -a 0 -x {3.1 6.1 -1 ------- null}
+ -t 0.0103377884873346 -s 3 -d 8 -p rtProtoDV -e 21 -c 0 -i 25 -a 0 -x {3.1 8.1 -1 ------- null}
- -t 0.0103377884873346 -s 3 -d 8 -p rtProtoDV -e 21 -c 0 -i 25 -a 0 -x {3.1 8.1 -1 ------- null}
h -t 0.0103377884873346 -s 3 -d 8 -p rtProtoDV -e 21 -c 0 -i 25 -a 0 -x {3.1 8.1 -1 ------- null}
+ -t 0.0103377884873346 -s 3 -d 10 -p rtProtoDV -e 21 -c 0 -i 26 -a 0 -x {3.1 10.1 -1 ------- null}
- -t 0.0103377884873346 -s 3 -d 10 -p rtProtoDV -e 21 -c 0 -i 26 -a 0 -x {3.1 10.1 -1 ------- null}
h -t 0.0103377884873346 -s 3 -d 10 -p rtProtoDV -e 21 -c 0 -i 26 -a 0 -x {3.1 10.1 -1 ------- null}
+ -t 0.0103377884873346 -s 3 -d 12 -p rtProtoDV -e 21 -c 0 -i 27 -a 0 -x {3.1 12.1 -1 ------- null}
- -t 0.0103377884873346 -s 3 -d 12 -p rtProtoDV -e 21 -c 0 -i 27 -a 0 -x {3.1 12.1 -1 ------- null}
h -t 0.0103377884873346 -s 3 -d 12 -p rtProtoDV -e 21 -c 0 -i 27 -a 0 -x {3.1 12.1 -1 ------- null}
r -t 0.0103377884873346 -s 0 -d 4 -p rtProtoDV -e 21 -c 0 -i 5 -a 0 -x {0.3 4.1 -1 ------- null}
+ -t 0.0103377884873346 -s 4 -d 0 -p rtProtoDV -e 21 -c 0 -i 28 -a 0 -x {4.1 0.3 -1 ------- null}
- -t 0.0103377884873346 -s 4 -d 0 -p rtProtoDV -e 21 -c 0 -i 28 -a 0 -x {4.1 0.3 -1 ------- null}
h -t 0.0103377884873346 -s 4 -d 0 -p rtProtoDV -e 21 -c 0 -i 28 -a 0 -x {4.1 0.3 -1 ------- null}
+ -t 0.0103377884873346 -s 4 -d 6 -p rtProtoDV -e 21 -c 0 -i 29 -a 0 -x {4.1 6.1 -1 ------- null}
- -t 0.0103377884873346 -s 4 -d 6 -p rtProtoDV -e 21 -c 0 -i 29 -a 0 -x {4.1 6.1 -1 ------- null}
h -t 0.0103377884873346 -s 4 -d 6 -p rtProtoDV -e 21 -c 0 -i 29 -a 0 -x {4.1 6.1 -1 ------- null}
+ -t 0.0103377884873346 -s 4 -d 8 -p rtProtoDV -e 21 -c 0 -i 30 -a 0 -x {4.1 8.1 -1 ------- null}
- -t 0.0103377884873346 -s 4 -d 8 -p rtProtoDV -e 21 -c 0 -i 30 -a 0 -x {4.1 8.1 -1 ------- null}
h -t 0.0103377884873346 -s 4 -d 8 -p rtProtoDV -e 21 -c 0 -i 30 -a 0 -x {4.1 8.1 -1 ------- null}
+ -t 0.0103377884873346 -s 4 -d 10 -p rtProtoDV -e 21 -c 0 -i 31 -a 0 -x {4.1 10.1 -1 ------- null}
- -t 0.0103377884873346 -s 4 -d 10 -p rtProtoDV -e 21 -c 0 -i 31 -a 0 -x {4.1 10.1 -1 ------- null}
h -t 0.0103377884873346 -s 4 -d 10 -p rtProtoDV -e 21 -c 0 -i 31 -a 0 -x {4.1 10.1 -1 ------- null}
+ -t 0.0103377884873346 -s 4 -d 12 -p rtProtoDV -e 21 -c 0 -i 32 -a 0 -x {4.1 12.1 -1 ------- null}
- -t 0.0103377884873346 -s 4 -d 12 -p rtProtoDV -e 21 -c 0 -i 32 -a 0 -x {4.1 12.1 -1 ------- null}
h -t 0.0103377884873346 -s 4 -d 12 -p rtProtoDV -e 21 -c 0 -i 32 -a 0 -x {4.1 12.1 -1 ------- null}
r -t 0.0172703302185826 -s 2 -d 0 -p rtProtoDV -e 21 -c 0 -i 6 -a 0 -x {2.1 0.3 -1 ------- null}
+ -t 0.0172703302185826 -s 0 -d 1 -p rtProtoDV -e 21 -c 0 -i 33 -a 0 -x {0.3 1.1 -1 ------- null}
- -t 0.0172703302185826 -s 0 -d 1 -p rtProtoDV -e 21 -c 0 -i 33 -a 0 -x {0.3 1.1 -1 ------- null}
h -t 0.0172703302185826 -s 0 -d 1 -p rtProtoDV -e 21 -c 0 -i 33 -a 0 -x {0.3 1.1 -1 ------- null}
+ -t 0.0172703302185826 -s 0 -d 2 -p rtProtoDV -e 21 -c 0 -i 34 -a 0 -x {0.3 2.1 -1 ------- null}
- -t 0.0172703302185826 -s 0 -d 2 -p rtProtoDV -e 21 -c 0 -i 34 -a 0 -x {0.3 2.1 -1 ------- null}
h -t 0.0172703302185826 -s 0 -d 2 -p rtProtoDV -e 21 -c 0 -i 34 -a 0 -x {0.3 2.1 -1 ------- null}
+ -t 0.0172703302185826 -s 0 -d 3 -p rtProtoDV -e 21 -c 0 -i 35 -a 0 -x {0.3 3.1 -1 ------- null}
- -t 0.0172703302185826 -s 0 -d 3 -p rtProtoDV -e 21 -c 0 -i 35 -a 0 -x {0.3 3.1 -1 ------- null}
h -t 0.0172703302185826 -s 0 -d 3 -p rtProtoDV -e 21 -c 0 -i 35 -a 0 -x {0.3 3.1 -1 ------- null}
+ -t 0.0172703302185826 -s 0 -d 4 -p rtProtoDV -e 21 -c 0 -i 36 -a 0 -x {0.3 4.1 -1 ------- null}
- -t 0.0172703302185826 -s 0 -d 4 -p rtProtoDV -e 21 -c 0 -i 36 -a 0 -x {0.3 4.1 -1 ------- null}
h -t 0.0172703302185826 -s 0 -d 4 -p rtProtoDV -e 21 -c 0 -i 36 -a 0 -x {0.3 4.1 -1 ------- null}
r -t 0.0172703302185826 -s 2 -d 5 -p rtProtoDV -e 21 -c 0 -i 7 -a 0 -x {2.1 5.1 -1 ------- null}
+ -t 0.0172703302185826 -s 5 -d 1 -p rtProtoDV -e 21 -c 0 -i 37 -a 0 -x {5.1 1.1 -1 ------- null}
- -t 0.0172703302185826 -s 5 -d 1 -p rtProtoDV -e 21 -c 0 -i 37 -a 0 -x {5.1 1.1 -1 ------- null}
h -t 0.0172703302185826 -s 5 -d 1 -p rtProtoDV -e 21 -c 0 -i 37 -a 0 -x {5.1 1.1 -1 ------- null}
+ -t 0.0172703302185826 -s 5 -d 2 -p rtProtoDV -e 21 -c 0 -i 38 -a 0 -x {5.1 2.1 -1 ------- null}
- -t 0.0172703302185826 -s 5 -d 2 -p rtProtoDV -e 21 -c 0 -i 38 -a 0 -x {5.1 2.1 -1 ------- null}
h -t 0.0172703302185826 -s 5 -d 2 -p rtProtoDV -e 21 -c 0 -i 38 -a 0 -x {5.1 2.1 -1 ------- null}
+ -t 0.0172703302185826 -s 5 -d 13 -p rtProtoDV -e 21 -c 0 -i 39 -a 0 -x {5.1 13.2 -1 ------- null}
- -t 0.0172703302185826 -s 5 -d 13 -p rtProtoDV -e 21 -c 0 -i 39 -a 0 -x {5.1 13.2 -1 ------- null}
h -t 0.0172703302185826 -s 5 -d 13 -p rtProtoDV -e 21 -c 0 -i 39 -a 0 -x {5.1 13.2 -1 ------- null}
+ -t 0.0172703302185826 -s 5 -d 14 -p rtProtoDV -e 21 -c 0 -i 40 -a 0 -x {5.1 14.1 -1 ------- null}
- -t 0.0172703302185826 -s 5 -d 14 -p rtProtoDV -e 21 -c 0 -i 40 -a 0 -x {5.1 14.1 -1 ------- null}
h -t 0.0172703302185826 -s 5 -d 14 -p rtProtoDV -e 21 -c 0 -i 40 -a 0 -x {5.1 14.1 -1 ------- null}
r -t 0.0172703302185826 -s 2 -d 7 -p rtProtoDV -e 21 -c 0 -i 8 -a 0 -x {2.1 7.1 -1 ------- null}
+ -t 0.0172703302185826 -s 7 -d 1 -p rtProtoDV -e 21 -c 0 -i 41 -a 0 -x {7.1 1.1 -1 ------- null}
- -t 0.0172703302185826 -s 7 -d 1 -p rtProtoDV -e 21 -c 0 -i 41 -a 0 -x {7.1 1.1 -1 ------- null}
h -t 0.0172703302185826 -s 7 -d 1 -p rtProtoDV -e 21 -c 0 -i 41 -a 0 -x {7.1 1.1 -1 ------- null}
+ -t 0.0172703302185826 -s 7 -d 2 -p rtProtoDV -e 21 -c 0 -i 42 -a 0 -x {7.1 2.1 -1 ------- null}
- -t 0.0172703302185826 -s 7 -d 2 -p rtProtoDV -e 21 -c 0 -i 42 -a 0 -x {7.1 2.1 -1 ------- null}
h -t 0.0172703302185826 -s 7 -d 2 -p rtProtoDV -e 21 -c 0 -i 42 -a 0 -x {7.1 2.1 -1 ------- null}
+ -t 0.0172703302185826 -s 7 -d 15 -p rtProtoDV -e 21 -c 0 -i 43 -a 0 -x {7.1 15.1 -1 ------- null}
- -t 0.0172703302185826 -s 7 -d 15 -p rtProtoDV -e 21 -c 0 -i 43 -a 0 -x {7.1 15.1 -1 ------- null}
h -t 0.0172703302185826 -s 7 -d 15 -p rtProtoDV -e 21 -c 0 -i 43 -a 0 -x {7.1 15.1 -1 ------- null}
+ -t 0.0172703302185826 -s 7 -d 16 -p rtProtoDV -e 21 -c 0 -i 44 -a 0 -x {7.1 16.1 -1 ------- null}
- -t 0.0172703302185826 -s 7 -d 16 -p rtProtoDV -e 21 -c 0 -i 44 -a 0 -x {7.1 16.1 -1 ------- null}
h -t 0.0172703302185826 -s 7 -d 16 -p rtProtoDV -e 21 -c 0 -i 44 -a 0 -x {7.1 16.1 -1 ------- null}
r -t 0.0172703302185826 -s 2 -d 9 -p rtProtoDV -e 21 -c 0 -i 9 -a 0 -x {2.1 9.1 -1 ------- null}
+ -t 0.0172703302185826 -s 9 -d 1 -p rtProtoDV -e 21 -c 0 -i 45 -a 0 -x {9.1 1.1 -1 ------- null}
- -t 0.0172703302185826 -s 9 -d 1 -p rtProtoDV -e 21 -c 0 -i 45 -a 0 -x {9.1 1.1 -1 ------- null}
h -t 0.0172703302185826 -s 9 -d 1 -p rtProtoDV -e 21 -c 0 -i 45 -a 0 -x {9.1 1.1 -1 ------- null}
+ -t 0.0172703302185826 -s 9 -d 2 -p rtProtoDV -e 21 -c 0 -i 46 -a 0 -x {9.1 2.1 -1 ------- null}
- -t 0.0172703302185826 -s 9 -d 2 -p rtProtoDV -e 21 -c 0 -i 46 -a 0 -x {9.1 2.1 -1 ------- null}
h -t 0.0172703302185826 -s 9 -d 2 -p rtProtoDV -e 21 -c 0 -i 46 -a 0 -x {9.1 2.1 -1 ------- null}
+ -t 0.0172703302185826 -s 9 -d 17 -p rtProtoDV -e 21 -c 0 -i 47 -a 0 -x {9.1 17.1 -1 ------- null}
- -t 0.0172703302185826 -s 9 -d 17 -p rtProtoDV -e 21 -c 0 -i 47 -a 0 -x {9.1 17.1 -1 ------- null}
h -t 0.0172703302185826 -s 9 -d 17 -p rtProtoDV -e 21 -c 0 -i 47 -a 0 -x {9.1 17.1 -1 ------- null}
+ -t 0.0172703302185826 -s 9 -d 18 -p rtProtoDV -e 21 -c 0 -i 48 -a 0 -x {9.1 18.1 -1 ------- null}
- -t 0.0172703302185826 -s 9 -d 18 -p rtProtoDV -e 21 -c 0 -i 48 -a 0 -x {9.1 18.1 -1 ------- null}
h -t 0.0172703302185826 -s 9 -d 18 -p rtProtoDV -e 21 -c 0 -i 48 -a 0 -x {9.1 18.1 -1 ------- null}
r -t 0.0172703302185826 -s 2 -d 11 -p rtProtoDV -e 21 -c 0 -i 10 -a 0 -x {2.1 11.1 -1 ------- null}
+ -t 0.0172703302185826 -s 11 -d 1 -p rtProtoDV -e 21 -c 0 -i 49 -a 0 -x {11.1 1.1 -1 ------- null}
- -t 0.0172703302185826 -s 11 -d 1 -p rtProtoDV -e 21 -c 0 -i 49 -a 0 -x {11.1 1.1 -1 ------- null}
h -t 0.0172703302185826 -s 11 -d 1 -p rtProtoDV -e 21 -c 0 -i 49 -a 0 -x {11.1 1.1 -1 ------- null}
+ -t 0.0172703302185826 -s 11 -d 2 -p rtProtoDV -e 21 -c 0 -i 50 -a 0 -x {11.1 2.1 -1 ------- null}
- -t 0.0172703302185826 -s 11 -d 2 -p rtProtoDV -e 21 -c 0 -i 50 -a 0 -x {11.1 2.1 -1 ------- null}
h -t 0.0172703302185826 -s 11 -d 2 -p rtProtoDV -e 21 -c 0 -i 50 -a 0 -x {11.1 2.1 -1 ------- null}
+ -t 0.0172703302185826 -s 11 -d 19 -p rtProtoDV -e 21 -c 0 -i 51 -a 0 -x {11.1 19.1 -1 ------- null}
- -t 0.0172703302185826 -s 11 -d 19 -p rtProtoDV -e 21 -c 0 -i 51 -a 0 -x {11.1 19.1 -1 ------- null}
h -t 0.0172703302185826 -s 11 -d 19 -p rtProtoDV -e 21 -c 0 -i 51 -a 0 -x {11.1 19.1 -1 ------- null}
+ -t 0.0172703302185826 -s 11 -d 20 -p rtProtoDV -e 21 -c 0 -i 52 -a 0 -x {11.1 20.2 -1 ------- null}
- -t 0.0172703302185826 -s 11 -d 20 -p rtProtoDV -e 21 -c 0 -i 52 -a 0 -x {11.1 20.2 -1 ------- null}
h -t 0.0172703302185826 -s 11 -d 20 -p rtProtoDV -e 21 -c 0 -i 52 -a 0 -x {11.1 20.2 -1 ------- null}
r -t 0.0205057884873346 -s 1 -d 0 -p rtProtoDV -e 21 -c 0 -i 13 -a 0 -x {1.1 0.3 -1 ------- null}
r -t 0.0205057884873346 -s 1 -d 5 -p rtProtoDV -e 21 -c 0 -i 14 -a 0 -x {1.1 5.1 -1 ------- null}
+ -t 0.0205057884873346 -s 5 -d 1 -p rtProtoDV -e 21 -c 0 -i 55 -a 0 -x {5.1 1.1 -1 ------- null}
- -t 0.0205057884873346 -s 5 -d 1 -p rtProtoDV -e 21 -c 0 -i 55 -a 0 -x {5.1 1.1 -1 ------- null}
h -t 0.0205057884873346 -s 5 -d 1 -p rtProtoDV -e 21 -c 0 -i 55 -a 0 -x {5.1 1.1 -1 ------- null}
+ -t 0.0205057884873346 -s 5 -d 2 -p rtProtoDV -e 21 -c 0 -i 56 -a 0 -x {5.1 2.1 -1 ------- null}
- -t 0.0205057884873346 -s 5 -d 2 -p rtProtoDV -e 21 -c 0 -i 56 -a 0 -x {5.1 2.1 -1 ------- null}
h -t 0.0205057884873346 -s 5 -d 2 -p rtProtoDV -e 21 -c 0 -i 56 -a 0 -x {5.1 2.1 -1 ------- null}
+ -t 0.0205057884873346 -s 5 -d 13 -p rtProtoDV -e 21 -c 0 -i 57 -a 0 -x {5.1 13.2 -1 ------- null}
- -t 0.0205057884873346 -s 5 -d 13 -p rtProtoDV -e 21 -c 0 -i 57 -a 0 -x {5.1 13.2 -1 ------- null}
h -t 0.0205057884873346 -s 5 -d 13 -p rtProtoDV -e 21 -c 0 -i 57 -a 0 -x {5.1 13.2 -1 ------- null}
+ -t 0.0205057884873346 -s 5 -d 14 -p rtProtoDV -e 21 -c 0 -i 58 -a 0 -x {5.1 14.1 -1 ------- null}
- -t 0.0205057884873346 -s 5 -d 14 -p rtProtoDV -e 21 -c 0 -i 58 -a 0 -x {5.1 14.1 -1 ------- null}
h -t 0.0205057884873346 -s 5 -d 14 -p rtProtoDV -e 21 -c 0 -i 58 -a 0 -x {5.1 14.1 -1 ------- null}
r -t 0.0205057884873346 -s 1 -d 7 -p rtProtoDV -e 21 -c 0 -i 15 -a 0 -x {1.1 7.1 -1 ------- null}
+ -t 0.0205057884873346 -s 7 -d 1 -p rtProtoDV -e 21 -c 0 -i 59 -a 0 -x {7.1 1.1 -1 ------- null}
- -t 0.0205057884873346 -s 7 -d 1 -p rtProtoDV -e 21 -c 0 -i 59 -a 0 -x {7.1 1.1 -1 ------- null}
h -t 0.0205057884873346 -s 7 -d 1 -p rtProtoDV -e 21 -c 0 -i 59 -a 0 -x {7.1 1.1 -1 ------- null}
+ -t 0.0205057884873346 -s 7 -d 2 -p rtProtoDV -e 21 -c 0 -i 60 -a 0 -x {7.1 2.1 -1 ------- null}
- -t 0.0205057884873346 -s 7 -d 2 -p rtProtoDV -e 21 -c 0 -i 60 -a 0 -x {7.1 2.1 -1 ------- null}
h -t 0.0205057884873346 -s 7 -d 2 -p rtProtoDV -e 21 -c 0 -i 60 -a 0 -x {7.1 2.1 -1 ------- null}
+ -t 0.0205057884873346 -s 7 -d 15 -p rtProtoDV -e 21 -c 0 -i 61 -a 0 -x {7.1 15.1 -1 ------- null}
- -t 0.0205057884873346 -s 7 -d 15 -p rtProtoDV -e 21 -c 0 -i 61 -a 0 -x {7.1 15.1 -1 ------- null}
h -t 0.0205057884873346 -s 7 -d 15 -p rtProtoDV -e 21 -c 0 -i 61 -a 0 -x {7.1 15.1 -1 ------- null}
+ -t 0.0205057884873346 -s 7 -d 16 -p rtProtoDV -e 21 -c 0 -i 62 -a 0 -x {7.1 16.1 -1 ------- null}
- -t 0.0205057884873346 -s 7 -d 16 -p rtProtoDV -e 21 -c 0 -i 62 -a 0 -x {7.1 16.1 -1 ------- null}
h -t 0.0205057884873346 -s 7 -d 16 -p rtProtoDV -e 21 -c 0 -i 62 -a 0 -x {7.1 16.1 -1 ------- null}
r -t 0.0205057884873346 -s 1 -d 9 -p rtProtoDV -e 21 -c 0 -i 16 -a 0 -x {1.1 9.1 -1 ------- null}
+ -t 0.0205057884873346 -s 9 -d 1 -p rtProtoDV -e 21 -c 0 -i 63 -a 0 -x {9.1 1.1 -1 ------- null}
- -t 0.0205057884873346 -s 9 -d 1 -p rtProtoDV -e 21 -c 0 -i 63 -a 0 -x {9.1 1.1 -1 ------- null}
h -t 0.0205057884873346 -s 9 -d 1 -p rtProtoDV -e 21 -c 0 -i 63 -a 0 -x {9.1 1.1 -1 ------- null}
+ -t 0.0205057884873346 -s 9 -d 2 -p rtProtoDV -e 21 -c 0 -i 64 -a 0 -x {9.1 2.1 -1 ------- null}
- -t 0.0205057884873346 -s 9 -d 2 -p rtProtoDV -e 21 -c 0 -i 64 -a 0 -x {9.1 2.1 -1 ------- null}
h -t 0.0205057884873346 -s 9 -d 2 -p rtProtoDV -e 21 -c 0 -i 64 -a 0 -x {9.1 2.1 -1 ------- null}
+ -t 0.0205057884873346 -s 9 -d 17 -p rtProtoDV -e 21 -c 0 -i 65 -a 0 -x {9.1 17.1 -1 ------- null}
- -t 0.0205057884873346 -s 9 -d 17 -p rtProtoDV -e 21 -c 0 -i 65 -a 0 -x {9.1 17.1 -1 ------- null}
h -t 0.0205057884873346 -s 9 -d 17 -p rtProtoDV -e 21 -c 0 -i 65 -a 0 -x {9.1 17.1 -1 ------- null}
+ -t 0.0205057884873346 -s 9 -d 18 -p rtProtoDV -e 21 -c 0 -i 66 -a 0 -x {9.1 18.1 -1 ------- null}
- -t 0.0205057884873346 -s 9 -d 18 -p rtProtoDV -e 21 -c 0 -i 66 -a 0 -x {9.1 18.1 -1 ------- null}
h -t 0.0205057884873346 -s 9 -d 18 -p rtProtoDV -e 21 -c 0 -i 66 -a 0 -x {9.1 18.1 -1 ------- null}
r -t 0.0205057884873346 -s 1 -d 11 -p rtProtoDV -e 21 -c 0 -i 17 -a 0 -x {1.1 11.1 -1 ------- null}
+ -t 0.0205057884873346 -s 11 -d 1 -p rtProtoDV -e 21 -c 0 -i 67 -a 0 -x {11.1 1.1 -1 ------- null}
- -t 0.0205057884873346 -s 11 -d 1 -p rtProtoDV -e 21 -c 0 -i 67 -a 0 -x {11.1 1.1 -1 ------- null}
h -t 0.0205057884873346 -s 11 -d 1 -p rtProtoDV -e 21 -c 0 -i 67 -a 0 -x {11.1 1.1 -1 ------- null}
+ -t 0.0205057884873346 -s 11 -d 2 -p rtProtoDV -e 21 -c 0 -i 68 -a 0 -x {11.1 2.1 -1 ------- null}
- -t 0.0205057884873346 -s 11 -d 2 -p rtProtoDV -e 21 -c 0 -i 68 -a 0 -x {11.1 2.1 -1 ------- null}
h -t 0.0205057884873346 -s 11 -d 2 -p rtProtoDV -e 21 -c 0 -i 68 -a 0 -x {11.1 2.1 -1 ------- null}
+ -t 0.0205057884873346 -s 11 -d 19 -p rtProtoDV -e 21 -c 0 -i 69 -a 0 -x {11.1 19.1 -1 ------- null}
- -t 0.0205057884873346 -s 11 -d 19 -p rtProtoDV -e 21 -c 0 -i 69 -a 0 -x {11.1 19.1 -1 ------- null}
h -t 0.0205057884873346 -s 11 -d 19 -p rtProtoDV -e 21 -c 0 -i 69 -a 0 -x {11.1 19.1 -1 ------- null}
+ -t 0.0205057884873346 -s 11 -d 20 -p rtProtoDV -e 21 -c 0 -i 70 -a 0 -x {11.1 20.2 -1 ------- null}
- -t 0.0205057884873346 -s 11 -d 20 -p rtProtoDV -e 21 -c 0 -i 70 -a 0 -x {11.1 20.2 -1 ------- null}
h -t 0.0205057884873346 -s 11 -d 20 -p rtProtoDV -e 21 -c 0 -i 70 -a 0 -x {11.1 20.2 -1 ------- null}
r -t 0.0205057884873346 -s 2 -d 0 -p rtProtoDV -e 21 -c 0 -i 18 -a 0 -x {2.1 0.3 -1 ------- null}
r -t 0.0205057884873346 -s 2 -d 5 -p rtProtoDV -e 21 -c 0 -i 19 -a 0 -x {2.1 5.1 -1 ------- null}
r -t 0.0205057884873346 -s 2 -d 7 -p rtProtoDV -e 21 -c 0 -i 20 -a 0 -x {2.1 7.1 -1 ------- null}
r -t 0.0205057884873346 -s 2 -d 9 -p rtProtoDV -e 21 -c 0 -i 21 -a 0 -x {2.1 9.1 -1 ------- null}
r -t 0.0205057884873346 -s 2 -d 11 -p rtProtoDV -e 21 -c 0 -i 22 -a 0 -x {2.1 11.1 -1 ------- null}
r -t 0.0205057884873346 -s 3 -d 0 -p rtProtoDV -e 21 -c 0 -i 23 -a 0 -x {3.1 0.3 -1 ------- null}
+ -t 0.0205057884873346 -s 0 -d 1 -p rtProtoDV -e 21 -c 0 -i 71 -a 0 -x {0.3 1.1 -1 ------- null}
- -t 0.0205057884873346 -s 0 -d 1 -p rtProtoDV -e 21 -c 0 -i 71 -a 0 -x {0.3 1.1 -1 ------- null}
h -t 0.0205057884873346 -s 0 -d 1 -p rtProtoDV -e 21 -c 0 -i 71 -a 0 -x {0.3 1.1 -1 ------- null}
+ -t 0.0205057884873346 -s 0 -d 2 -p rtProtoDV -e 21 -c 0 -i 72 -a 0 -x {0.3 2.1 -1 ------- null}
- -t 0.0205057884873346 -s 0 -d 2 -p rtProtoDV -e 21 -c 0 -i 72 -a 0 -x {0.3 2.1 -1 ------- null}
h -t 0.0205057884873346 -s 0 -d 2 -p rtProtoDV -e 21 -c 0 -i 72 -a 0 -x {0.3 2.1 -1 ------- null}
+ -t 0.0205057884873346 -s 0 -d 3 -p rtProtoDV -e 21 -c 0 -i 73 -a 0 -x {0.3 3.1 -1 ------- null}
- -t 0.0205057884873346 -s 0 -d 3 -p rtProtoDV -e 21 -c 0 -i 73 -a 0 -x {0.3 3.1 -1 ------- null}
h -t 0.0205057884873346 -s 0 -d 3 -p rtProtoDV -e 21 -c 0 -i 73 -a 0 -x {0.3 3.1 -1 ------- null}
+ -t 0.0205057884873346 -s 0 -d 4 -p rtProtoDV -e 21 -c 0 -i 74 -a 0 -x {0.3 4.1 -1 ------- null}
- -t 0.0205057884873346 -s 0 -d 4 -p rtProtoDV -e 21 -c 0 -i 74 -a 0 -x {0.3 4.1 -1 ------- null}
h -t 0.0205057884873346 -s 0 -d 4 -p rtProtoDV -e 21 -c 0 -i 74 -a 0 -x {0.3 4.1 -1 ------- null}
r -t 0.0205057884873346 -s 3 -d 6 -p rtProtoDV -e 21 -c 0 -i 24 -a 0 -x {3.1 6.1 -1 ------- null}
+ -t 0.0205057884873346 -s 6 -d 3 -p rtProtoDV -e 21 -c 0 -i 75 -a 0 -x {6.1 3.1 -1 ------- null}
- -t 0.0205057884873346 -s 6 -d 3 -p rtProtoDV -e 21 -c 0 -i 75 -a 0 -x {6.1 3.1 -1 ------- null}
h -t 0.0205057884873346 -s 6 -d 3 -p rtProtoDV -e 21 -c 0 -i 75 -a 0 -x {6.1 3.1 -1 ------- null}
+ -t 0.0205057884873346 -s 6 -d 4 -p rtProtoDV -e 21 -c 0 -i 76 -a 0 -x {6.1 4.1 -1 ------- null}
- -t 0.0205057884873346 -s 6 -d 4 -p rtProtoDV -e 21 -c 0 -i 76 -a 0 -x {6.1 4.1 -1 ------- null}
h -t 0.0205057884873346 -s 6 -d 4 -p rtProtoDV -e 21 -c 0 -i 76 -a 0 -x {6.1 4.1 -1 ------- null}
+ -t 0.0205057884873346 -s 6 -d 13 -p rtProtoDV -e 21 -c 0 -i 77 -a 0 -x {6.1 13.2 -1 ------- null}
- -t 0.0205057884873346 -s 6 -d 13 -p rtProtoDV -e 21 -c 0 -i 77 -a 0 -x {6.1 13.2 -1 ------- null}
h -t 0.0205057884873346 -s 6 -d 13 -p rtProtoDV -e 21 -c 0 -i 77 -a 0 -x {6.1 13.2 -1 ------- null}
+ -t 0.0205057884873346 -s 6 -d 14 -p rtProtoDV -e 21 -c 0 -i 78 -a 0 -x {6.1 14.1 -1 ------- null}
- -t 0.0205057884873346 -s 6 -d 14 -p rtProtoDV -e 21 -c 0 -i 78 -a 0 -x {6.1 14.1 -1 ------- null}
h -t 0.0205057884873346 -s 6 -d 14 -p rtProtoDV -e 21 -c 0 -i 78 -a 0 -x {6.1 14.1 -1 ------- null}
r -t 0.0205057884873346 -s 3 -d 8 -p rtProtoDV -e 21 -c 0 -i 25 -a 0 -x {3.1 8.1 -1 ------- null}
+ -t 0.0205057884873346 -s 8 -d 3 -p rtProtoDV -e 21 -c 0 -i 79 -a 0 -x {8.1 3.1 -1 ------- null}
- -t 0.0205057884873346 -s 8 -d 3 -p rtProtoDV -e 21 -c 0 -i 79 -a 0 -x {8.1 3.1 -1 ------- null}
h -t 0.0205057884873346 -s 8 -d 3 -p rtProtoDV -e 21 -c 0 -i 79 -a 0 -x {8.1 3.1 -1 ------- null}
+ -t 0.0205057884873346 -s 8 -d 4 -p rtProtoDV -e 21 -c 0 -i 80 -a 0 -x {8.1 4.1 -1 ------- null}
- -t 0.0205057884873346 -s 8 -d 4 -p rtProtoDV -e 21 -c 0 -i 80 -a 0 -x {8.1 4.1 -1 ------- null}
h -t 0.0205057884873346 -s 8 -d 4 -p rtProtoDV -e 21 -c 0 -i 80 -a 0 -x {8.1 4.1 -1 ------- null}
+ -t 0.0205057884873346 -s 8 -d 15 -p rtProtoDV -e 21 -c 0 -i 81 -a 0 -x {8.1 15.1 -1 ------- null}
- -t 0.0205057884873346 -s 8 -d 15 -p rtProtoDV -e 21 -c 0 -i 81 -a 0 -x {8.1 15.1 -1 ------- null}
h -t 0.0205057884873346 -s 8 -d 15 -p rtProtoDV -e 21 -c 0 -i 81 -a 0 -x {8.1 15.1 -1 ------- null}
+ -t 0.0205057884873346 -s 8 -d 16 -p rtProtoDV -e 21 -c 0 -i 82 -a 0 -x {8.1 16.1 -1 ------- null}
- -t 0.0205057884873346 -s 8 -d 16 -p rtProtoDV -e 21 -c 0 -i 82 -a 0 -x {8.1 16.1 -1 ------- null}
h -t 0.0205057884873346 -s 8 -d 16 -p rtProtoDV -e 21 -c 0 -i 82 -a 0 -x {8.1 16.1 -1 ------- null}
r -t 0.0205057884873346 -s 3 -d 10 -p rtProtoDV -e 21 -c 0 -i 26 -a 0 -x {3.1 10.1 -1 ------- null}
+ -t 0.0205057884873346 -s 10 -d 3 -p rtProtoDV -e 21 -c 0 -i 83 -a 0 -x {10.1 3.1 -1 ------- null}
- -t 0.0205057884873346 -s 10 -d 3 -p rtProtoDV -e 21 -c 0 -i 83 -a 0 -x {10.1 3.1 -1 ------- null}
h -t 0.0205057884873346 -s 10 -d 3 -p rtProtoDV -e 21 -c 0 -i 83 -a 0 -x {10.1 3.1 -1 ------- null}
+ -t 0.0205057884873346 -s 10 -d 4 -p rtProtoDV -e 21 -c 0 -i 84 -a 0 -x {10.1 4.1 -1 ------- null}
- -t 0.0205057884873346 -s 10 -d 4 -p rtProtoDV -e 21 -c 0 -i 84 -a 0 -x {10.1 4.1 -1 ------- null}
h -t 0.0205057884873346 -s 10 -d 4 -p rtProtoDV -e 21 -c 0 -i 84 -a 0 -x {10.1 4.1 -1 ------- null}
+ -t 0.0205057884873346 -s 10 -d 17 -p rtProtoDV -e 21 -c 0 -i 85 -a 0 -x {10.1 17.1 -1 ------- null}
- -t 0.0205057884873346 -s 10 -d 17 -p rtProtoDV -e 21 -c 0 -i 85 -a 0 -x {10.1 17.1 -1 ------- null}
h -t 0.0205057884873346 -s 10 -d 17 -p rtProtoDV -e 21 -c 0 -i 85 -a 0 -x {10.1 17.1 -1 ------- null}
+ -t 0.0205057884873346 -s 10 -d 18 -p rtProtoDV -e 21 -c 0 -i 86 -a 0 -x {10.1 18.1 -1 ------- null}
- -t 0.0205057884873346 -s 10 -d 18 -p rtProtoDV -e 21 -c 0 -i 86 -a 0 -x {10.1 18.1 -1 ------- null}
h -t 0.0205057884873346 -s 10 -d 18 -p rtProtoDV -e 21 -c 0 -i 86 -a 0 -x {10.1 18.1 -1 ------- null}
r -t 0.0205057884873346 -s 3 -d 12 -p rtProtoDV -e 21 -c 0 -i 27 -a 0 -x {3.1 12.1 -1 ------- null}
+ -t 0.0205057884873346 -s 12 -d 3 -p rtProtoDV -e 21 -c 0 -i 87 -a 0 -x {12.1 3.1 -1 ------- null}
- -t 0.0205057884873346 -s 12 -d 3 -p rtProtoDV -e 21 -c 0 -i 87 -a 0 -x {12.1 3.1 -1 ------- null}
h -t 0.0205057884873346 -s 12 -d 3 -p rtProtoDV -e 21 -c 0 -i 87 -a 0 -x {12.1 3.1 -1 ------- null}