+ 0.1 0 3 cbr 1000 ------- 0 0.0 15.0 0 0
- 0.1 0 3 cbr 1000 ------- 0 0.0 15.0 0 0
+ 0.1 0 3 cbr 1000 ------- 0 0.0 15.0 1 1
+ 0.1 0 3 cbr 1000 ------- 0 0.0 15.0 2 2
+ 0.1 0 3 cbr 1000 ------- 0 0.0 15.0 3 3
+ 0.1 0 3 cbr 1000 ------- 0 0.0 15.0 4 4
+ 0.105 0 3 cbr 1000 ------- 0 0.0 15.0 5 5
+ 0.105 0 3 cbr 1000 ------- 0 0.0 15.0 6 6
+ 0.105 0 3 cbr 1000 ------- 0 0.0 15.0 7 7
+ 0.105 0 3 cbr 1000 ------- 0 0.0 15.0 8 8
+ 0.105 0 3 cbr 1000 ------- 0 0.0 15.0 9 9
- 0.108 0 3 cbr 1000 ------- 0 0.0 15.0 1 1
+ 0.11 0 3 cbr 1000 ------- 0 0.0 15.0 10 10
+ 0.11 0 3 cbr 1000 ------- 0 0.0 15.0 11 11
+ 0.11 0 3 cbr 1000 ------- 0 0.0 15.0 12 12
+ 0.11 0 3 cbr 1000 ------- 0 0.0 15.0 13 13
+ 0.11 0 3 cbr 1000 ------- 0 0.0 15.0 14 14
+ 0.115 0 3 cbr 1000 ------- 0 0.0 15.0 15 15
+ 0.115 0 3 cbr 1000 ------- 0 0.0 15.0 16 16
+ 0.115 0 3 cbr 1000 ------- 0 0.0 15.0 17 17
+ 0.115 0 3 cbr 1000 ------- 0 0.0 15.0 18 18
+ 0.115 0 3 cbr 1000 ------- 0 0.0 15.0 19 19
- 0.116 0 3 cbr 1000 ------- 0 0.0 15.0 2 2
r 0.118 0 3 cbr 1000 ------- 0 0.0 15.0 0 0
+ 0.118 3 15 cbr 1000 ------- 0 0.0 15.0 0 0
- 0.118 3 15 cbr 1000 ------- 0 0.0 15.0 0 0
+ 0.12 0 3 cbr 1000 ------- 0 0.0 15.0 20 20
+ 0.12 0 3 cbr 1000 ------- 0 0.0 15.0 21 21
+ 0.12 0 3 cbr 1000 ------- 0 0.0 15.0 22 22
+ 0.12 0 3 cbr 1000 ------- 0 0.0 15.0 23 23
+ 0.12 0 3 cbr 1000 ------- 0 0.0 15.0 24 24
- 0.124 0 3 cbr 1000 ------- 0 0.0 15.0 3 3
+ 0.125 0 3 cbr 1000 ------- 0 0.0 15.0 25 25
+ 0.125 0 3 cbr 1000 ------- 0 0.0 15.0 26 26
+ 0.125 0 3 cbr 1000 ------- 0 0.0 15.0 27 27
+ 0.125 0 3 cbr 1000 ------- 0 0.0 15.0 28 28
+ 0.125 0 3 cbr 1000 ------- 0 0.0 15.0 29 29
r 0.126 0 3 cbr 1000 ------- 0 0.0 15.0 1 1
+ 0.126 3 15 cbr 1000 ------- 0 0.0 15.0 1 1
- 0.126 3 15 cbr 1000 ------- 0 0.0 15.0 1 1
+ 0.13 0 3 cbr 1000 ------- 0 0.0 15.0 30 30
+ 0.13 0 3 cbr 1000 ------- 0 0.0 15.0 31 31
+ 0.13 0 3 cbr 1000 ------- 0 0.0 15.0 32 32
+ 0.13 0 3 cbr 1000 ------- 0 0.0 15.0 33 33
+ 0.13 0 3 cbr 1000 ------- 0 0.0 15.0 34 34
- 0.132 0 3 cbr 1000 ------- 0 0.0 15.0 4 4
r 0.134 0 3 cbr 1000 ------- 0 0.0 15.0 2 2
+ 0.134 3 15 cbr 1000 ------- 0 0.0 15.0 2 2
- 0.134 3 15 cbr 1000 ------- 0 0.0 15.0 2 2
+ 0.135 0 3 cbr 1000 ------- 0 0.0 15.0 35 35
+ 0.135 0 3 cbr 1000 ------- 0 0.0 15.0 36 36
+ 0.135 0 3 cbr 1000 ------- 0 0.0 15.0 37 37
+ 0.135 0 3 cbr 1000 ------- 0 0.0 15.0 38 38
+ 0.135 0 3 cbr 1000 ------- 0 0.0 15.0 39 39
r 0.136 3 15 cbr 1000 ------- 0 0.0 15.0 0 0
- 0.14 0 3 cbr 1000 ------- 0 0.0 15.0 5 5
+ 0.14 0 3 cbr 1000 ------- 0 0.0 15.0 40 40
+ 0.14 0 3 cbr 1000 ------- 0 0.0 15.0 41 41
+ 0.14 0 3 cbr 1000 ------- 0 0.0 15.0 42 42
+ 0.14 0 3 cbr 1000 ------- 0 0.0 15.0 43 43
+ 0.14 0 3 cbr 1000 ------- 0 0.0 15.0 44 44
r 0.142 0 3 cbr 1000 ------- 0 0.0 15.0 3 3
+ 0.142 3 15 cbr 1000 ------- 0 0.0 15.0 3 3
- 0.142 3 15 cbr 1000 ------- 0 0.0 15.0 3 3
r 0.144 3 15 cbr 1000 ------- 0 0.0 15.0 1 1
+ 0.145 0 3 cbr 1000 ------- 0 0.0 15.0 45 45
+ 0.145 0 3 cbr 1000 ------- 0 0.0 15.0 46 46
+ 0.145 0 3 cbr 1000 ------- 0 0.0 15.0 47 47
+ 0.145 0 3 cbr 1000 ------- 0 0.0 15.0 48 48
+ 0.145 0 3 cbr 1000 ------- 0 0.0 15.0 49 49
- 0.148 0 3 cbr 1000 ------- 0 0.0 15.0 6 6
r 0.15 0 3 cbr 1000 ------- 0 0.0 15.0 4 4
+ 0.15 3 15 cbr 1000 ------- 0 0.0 15.0 4 4
- 0.15 3 15 cbr 1000 ------- 0 0.0 15.0 4 4
+ 0.15 0 3 cbr 1000 ------- 0 0.0 15.0 50 50
+ 0.15 0 3 cbr 1000 ------- 0 0.0 15.0 51 51
+ 0.15 0 3 cbr 1000 ------- 0 0.0 15.0 52 52
+ 0.15 0 3 cbr 1000 ------- 0 0.0 15.0 53 53
+ 0.15 0 3 cbr 1000 ------- 0 0.0 15.0 54 54
r 0.152 3 15 cbr 1000 ------- 0 0.0 15.0 2 2
+ 0.155 0 3 cbr 1000 ------- 0 0.0 15.0 55 55
+ 0.155 0 3 cbr 1000 ------- 0 0.0 15.0 56 56
d 0.155 0 3 cbr 1000 ------- 0 0.0 15.0 56 56
+ 0.155 0 3 cbr 1000 ------- 0 0.0 15.0 57 57
d 0.155 0 3 cbr 1000 ------- 0 0.0 15.0 57 57
+ 0.155 0 3 cbr 1000 ------- 0 0.0 15.0 58 58
d 0.155 0 3 cbr 1000 ------- 0 0.0 15.0 58 58
+ 0.155 0 3 cbr 1000 ------- 0 0.0 15.0 59 59
d 0.155 0 3 cbr 1000 ------- 0 0.0 15.0 59 59
- 0.156 0 3 cbr 1000 ------- 0 0.0 15.0 7 7
r 0.158 0 3 cbr 1000 ------- 0 0.0 15.0 5 5
+ 0.158 3 15 cbr 1000 ------- 0 0.0 15.0 5 5
- 0.158 3 15 cbr 1000 ------- 0 0.0 15.0 5 5
r 0.16 3 15 cbr 1000 ------- 0 0.0 15.0 3 3
+ 0.16 0 3 cbr 1000 ------- 0 0.0 15.0 60 60
+ 0.16 0 3 cbr 1000 ------- 0 0.0 15.0 61 61
d 0.16 0 3 cbr 1000 ------- 0 0.0 15.0 61 61
+ 0.16 0 3 cbr 1000 ------- 0 0.0 15.0 62 62
d 0.16 0 3 cbr 1000 ------- 0 0.0 15.0 62 62
+ 0.16 0 3 cbr 1000 ------- 0 0.0 15.0 63 63
d 0.16 0 3 cbr 1000 ------- 0 0.0 15.0 63 63
+ 0.16 0 3 cbr 1000 ------- 0 0.0 15.0 64 64
d 0.16 0 3 cbr 1000 ------- 0 0.0 15.0 64 64
- 0.164 0 3 cbr 1000 ------- 0 0.0 15.0 8 8
+ 0.165 0 3 cbr 1000 ------- 0 0.0 15.0 65 65
+ 0.165 0 3 cbr 1000 ------- 0 0.0 15.0 66 66
d 0.165 0 3 cbr 1000 ------- 0 0.0 15.0 66 66
+ 0.165 0 3 cbr 1000 ------- 0 0.0 15.0 67 67
d 0.165 0 3 cbr 1000 ------- 0 0.0 15.0 67 67
+ 0.165 0 3 cbr 1000 ------- 0 0.0 15.0 68 68
d 0.165 0 3 cbr 1000 ------- 0 0.0 15.0 68 68
+ 0.165 0 3 cbr 1000 ------- 0 0.0 15.0 69 69
d 0.165 0 3 cbr 1000 ------- 0 0.0 15.0 69 69
r 0.166 0 3 cbr 1000 ------- 0 0.0 15.0 6 6
+ 0.166 3 15 cbr 1000 ------- 0 0.0 15.0 6 6
- 0.166 3 15 cbr 1000 ------- 0 0.0 15.0 6 6
r 0.168 3 15 cbr 1000 ------- 0 0.0 15.0 4 4
+ 0.17 0 3 cbr 1000 ------- 0 0.0 15.0 70 70
d 0.17 0 3 cbr 1000 ------- 0 0.0 15.0 70 70
+ 0.17 0 3 cbr 1000 ------- 0 0.0 15.0 71 71
d 0.17 0 3 cbr 1000 ------- 0 0.0 15.0 71 71
+ 0.17 0 3 cbr 1000 ------- 0 0.0 15.0 72 72
d 0.17 0 3 cbr 1000 ------- 0 0.0 15.0 72 72
+ 0.17 0 3 cbr 1000 ------- 0 0.0 15.0 73 73
d 0.17 0 3 cbr 1000 ------- 0 0.0 15.0 73 73
+ 0.17 0 3 cbr 1000 ------- 0 0.0 15.0 74 74
d 0.17 0 3 cbr 1000 ------- 0 0.0 15.0 74 74
- 0.172 0 3 cbr 1000 ------- 0 0.0 15.0 9 9
r 0.174 0 3 cbr 1000 ------- 0 0.0 15.0 7 7
+ 0.174 3 15 cbr 1000 ------- 0 0.0 15.0 7 7
- 0.174 3 15 cbr 1000 ------- 0 0.0 15.0 7 7
+ 0.175 0 3 cbr 1000 ------- 0 0.0 15.0 75 75
+ 0.175 0 3 cbr 1000 ------- 0 0.0 15.0 76 76
d 0.175 0 3 cbr 1000 ------- 0 0.0 15.0 76 76
+ 0.175 0 3 cbr 1000 ------- 0 0.0 15.0 77 77
d 0.175 0 3 cbr 1000 ------- 0 0.0 15.0 77 77
+ 0.175 0 3 cbr 1000 ------- 0 0.0 15.0 78 78
d 0.175 0 3 cbr 1000 ------- 0 0.0 15.0 78 78
+ 0.175 0 3 cbr 1000 ------- 0 0.0 15.0 79 79
d 0.175 0 3 cbr 1000 ------- 0 0.0 15.0 79 79
r 0.176 3 15 cbr 1000 ------- 0 0.0 15.0 5 5
- 0.18 0 3 cbr 1000 ------- 0 0.0 15.0 10 10
+ 0.18 0 3 cbr 1000 ------- 0 0.0 15.0 80 80
+ 0.18 0 3 cbr 1000 ------- 0 0.0 15.0 81 81
d 0.18 0 3 cbr 1000 ------- 0 0.0 15.0 81 81
+ 0.18 0 3 cbr 1000 ------- 0 0.0 15.0 82 82
d 0.18 0 3 cbr 1000 ------- 0 0.0 15.0 82 82
+ 0.18 0 3 cbr 1000 ------- 0 0.0 15.0 83 83
d 0.18 0 3 cbr 1000 ------- 0 0.0 15.0 83 83
+ 0.18 0 3 cbr 1000 ------- 0 0.0 15.0 84 84
d 0.18 0 3 cbr 1000 ------- 0 0.0 15.0 84 84
r 0.182 0 3 cbr 1000 ------- 0 0.0 15.0 8 8
+ 0.182 3 15 cbr 1000 ------- 0 0.0 15.0 8 8
- 0.182 3 15 cbr 1000 ------- 0 0.0 15.0 8 8
r 0.184 3 15 cbr 1000 ------- 0 0.0 15.0 6 6
+ 0.185 0 3 cbr 1000 ------- 0 0.0 15.0 85 85
d 0.185 0 3 cbr 1000 ------- 0 0.0 15.0 85 85
+ 0.185 0 3 cbr 1000 ------- 0 0.0 15.0 86 86
d 0.185 0 3 cbr 1000 ------- 0 0.0 15.0 86 86
+ 0.185 0 3 cbr 1000 ------- 0 0.0 15.0 87 87
d 0.185 0 3 cbr 1000 ------- 0 0.0 15.0 87 87
+ 0.185 0 3 cbr 1000 ------- 0 0.0 15.0 88 88
d 0.185 0 3 cbr 1000 ------- 0 0.0 15.0 88 88
+ 0.185 0 3 cbr 1000 ------- 0 0.0 15.0 89 89
d 0.185 0 3 cbr 1000 ------- 0 0.0 15.0 89 89
- 0.188 0 3 cbr 1000 ------- 0 0.0 15.0 11 11
r 0.19 0 3 cbr 1000 ------- 0 0.0 15.0 9 9
+ 0.19 3 15 cbr 1000 ------- 0 0.0 15.0 9 9
- 0.19 3 15 cbr 1000 ------- 0 0.0 15.0 9 9
+ 0.19 0 3 cbr 1000 ------- 0 0.0 15.0 90 90
+ 0.19 0 3 cbr 1000 ------- 0 0.0 15.0 91 91
d 0.19 0 3 cbr 1000 ------- 0 0.0 15.0 91 91
+ 0.19 0 3 cbr 1000 ------- 0 0.0 15.0 92 92
d 0.19 0 3 cbr 1000 ------- 0 0.0 15.0 92 92
+ 0.19 0 3 cbr 1000 ------- 0 0.0 15.0 93 93
d 0.19 0 3 cbr 1000 ------- 0 0.0 15.0 93 93
+ 0.19 0 3 cbr 1000 ------- 0 0.0 15.0 94 94
d 0.19 0 3 cbr 1000 ------- 0 0.0 15.0 94 94
r 0.192 3 15 cbr 1000 ------- 0 0.0 15.0 7 7
+ 0.195 0 3 cbr 1000 ------- 0 0.0 15.0 95 95
d 0.195 0 3 cbr 1000 ------- 0 0.0 15.0 95 95
+ 0.195 0 3 cbr 1000 ------- 0 0.0 15.0 96 96
d 0.195 0 3 cbr 1000 ------- 0 0.0 15.0 96 96
+ 0.195 0 3 cbr 1000 ------- 0 0.0 15.0 97 97
d 0.195 0 3 cbr 1000 ------- 0 0.0 15.0 97 97
+ 0.195 0 3 cbr 1000 ------- 0 0.0 15.0 98 98
d 0.195 0 3 cbr 1000 ------- 0 0.0 15.0 98 98
+ 0.195 0 3 cbr 1000 ------- 0 0.0 15.0 99 99
d 0.195 0 3 cbr 1000 ------- 0 0.0 15.0 99 99
- 0.196 0 3 cbr 1000 ------- 0 0.0 15.0 12 12
r 0.198 0 3 cbr 1000 ------- 0 0.0 15.0 10 10
+ 0.198 3 15 cbr 1000 ------- 0 0.0 15.0 10 10
- 0.198 3 15 cbr 1000 ------- 0 0.0 15.0 10 10
r 0.2 3 15 cbr 1000 ------- 0 0.0 15.0 8 8
+ 0.2 0 3 cbr 1000 ------- 0 0.0 15.0 100 100
+ 0.2 0 3 cbr 1000 ------- 0 0.0 15.0 101 101
d 0.2 0 3 cbr 1000 ------- 0 0.0 15.0 101 101
+ 0.2 0 3 cbr 1000 ------- 0 0.0 15.0 102 102
d 0.2 0 3 cbr 1000 ------- 0 0.0 15.0 102 102
+ 0.2 0 3 cbr 1000 ------- 0 0.0 15.0 103 103
d 0.2 0 3 cbr 1000 ------- 0 0.0 15.0 103 103
+ 0.2 0 3 cbr 1000 ------- 0 0.0 15.0 104 104
d 0.2 0 3 cbr 1000 ------- 0 0.0 15.0 104 104
- 0.204 0 3 cbr 1000 ------- 0 0.0 15.0 13 13
+ 0.205 0 3 cbr 1000 ------- 0 0.0 15.0 105 105
+ 0.205 0 3 cbr 1000 ------- 0 0.0 15.0 106 106
d 0.205 0 3 cbr 1000 ------- 0 0.0 15.0 106 106
+ 0.205 0 3 cbr 1000 ------- 0 0.0 15.0 107 107
d 0.205 0 3 cbr 1000 ------- 0 0.0 15.0 107 107
+ 0.205 0 3 cbr 1000 ------- 0 0.0 15.0 108 108
d 0.205 0 3 cbr 1000 ------- 0 0.0 15.0 108 108
+ 0.205 0 3 cbr 1000 ------- 0 0.0 15.0 109 109
d 0.205 0 3 cbr 1000 ------- 0 0.0 15.0 109 109
r 0.206 0 3 cbr 1000 ------- 0 0.0 15.0 11 11
+ 0.206 3 15 cbr 1000 ------- 0 0.0 15.0 11 11
- 0.206 3 15 cbr 1000 ------- 0 0.0 15.0 11 11
r 0.208 3 15 cbr 1000 ------- 0 0.0 15.0 9 9
+ 0.21 0 3 cbr 1000 ------- 0 0.0 15.0 110 110
d 0.21 0 3 cbr 1000 ------- 0 0.0 15.0 110 110
+ 0.21 0 3 cbr 1000 ------- 0 0.0 15.0 111 111
d 0.21 0 3 cbr 1000 ------- 0 0.0 15.0 111 111
+ 0.21 0 3 cbr 1000 ------- 0 0.0 15.0 112 112
d 0.21 0 3 cbr 1000 ------- 0 0.0 15.0 112 112
+ 0.21 0 3 cbr 1000 ------- 0 0.0 15.0 113 113
d 0.21 0 3 cbr 1000 ------- 0 0.0 15.0 113 113
+ 0.21 0 3 cbr 1000 ------- 0 0.0 15.0 114 114
d 0.21 0 3 cbr 1000 ------- 0 0.0 15.0 114 114
- 0.212 0 3 cbr 1000 ------- 0 0.0 15.0 14 14
r 0.214 0 3 cbr 1000 ------- 0 0.0 15.0 12 12
+ 0.214 3 15 cbr 1000 ------- 0 0.0 15.0 12 12
- 0.214 3 15 cbr 1000 ------- 0 0.0 15.0 12 12
+ 0.215 0 3 cbr 1000 ------- 0 0.0 15.0 115 115
+ 0.215 0 3 cbr 1000 ------- 0 0.0 15.0 116 116
d 0.215 0 3 cbr 1000 ------- 0 0.0 15.0 116 116
+ 0.215 0 3 cbr 1000 ------- 0 0.0 15.0 117 117
d 0.215 0 3 cbr 1000 ------- 0 0.0 15.0 117 117
+ 0.215 0 3 cbr 1000 ------- 0 0.0 15.0 118 118
d 0.215 0 3 cbr 1000 ------- 0 0.0 15.0 118 118
+ 0.215 0 3 cbr 1000 ------- 0 0.0 15.0 119 119
d 0.215 0 3 cbr 1000 ------- 0 0.0 15.0 119 119
r 0.216 3 15 cbr 1000 ------- 0 0.0 15.0 10 10
- 0.22 0 3 cbr 1000 ------- 0 0.0 15.0 15 15
+ 0.22 0 3 cbr 1000 ------- 0 0.0 15.0 120 120
+ 0.22 0 3 cbr 1000 ------- 0 0.0 15.0 121 121
d 0.22 0 3 cbr 1000 ------- 0 0.0 15.0 121 121
+ 0.22 0 3 cbr 1000 ------- 0 0.0 15.0 122 122
d 0.22 0 3 cbr 1000 ------- 0 0.0 15.0 122 122
+ 0.22 0 3 cbr 1000 ------- 0 0.0 15.0 123 123
d 0.22 0 3 cbr 1000 ------- 0 0.0 15.0 123 123
+ 0.22 0 3 cbr 1000 ------- 0 0.0 15.0 124 124
d 0.22 0 3 cbr 1000 ------- 0 0.0 15.0 124 124
r 0.222 0 3 cbr 1000 ------- 0 0.0 15.0 13 13
+ 0.222 3 15 cbr 1000 ------- 0 0.0 15.0 13 13
- 0.222 3 15 cbr 1000 ------- 0 0.0 15.0 13 13
r 0.224 3 15 cbr 1000 ------- 0 0.0 15.0 11 11
+ 0.225 0 3 cbr 1000 ------- 0 0.0 15.0 125 125
d 0.225 0 3 cbr 1000 ------- 0 0.0 15.0 125 125
+ 0.225 0 3 cbr 1000 ------- 0 0.0 15.0 126 126
d 0.225 0 3 cbr 1000 ------- 0 0.0 15.0 126 126
+ 0.225 0 3 cbr 1000 ------- 0 0.0 15.0 127 127
d 0.225 0 3 cbr 1000 ------- 0 0.0 15.0 127 127
+ 0.225 0 3 cbr 1000 ------- 0 0.0 15.0 128 128
d 0.225 0 3 cbr 1000 ------- 0 0.0 15.0 128 128
+ 0.225 0 3 cbr 1000 ------- 0 0.0 15.0 129 129
d 0.225 0 3 cbr 1000 ------- 0 0.0 15.0 129 129
- 0.228 0 3 cbr 1000 ------- 0 0.0 15.0 16 16
r 0.23 0 3 cbr 1000 ------- 0 0.0 15.0 14 14
+ 0.23 3 15 cbr 1000 ------- 0 0.0 15.0 14 14
- 0.23 3 15 cbr 1000 ------- 0 0.0 15.0 14 14
+ 0.23 0 3 cbr 1000 ------- 0 0.0 15.0 130 130
+ 0.23 0 3 cbr 1000 ------- 0 0.0 15.0 131 131
d 0.23 0 3 cbr 1000 ------- 0 0.0 15.0 131 131
+ 0.23 0 3 cbr 1000 ------- 0 0.0 15.0 132 132
d 0.23 0 3 cbr 1000 ------- 0 0.0 15.0 132 132
+ 0.23 0 3 cbr 1000 ------- 0 0.0 15.0 133 133
d 0.23 0 3 cbr 1000 ------- 0 0.0 15.0 133 133
+ 0.23 0 3 cbr 1000 ------- 0 0.0 15.0 134 134
d 0.23 0 3 cbr 1000 ------- 0 0.0 15.0 134 134
r 0.232 3 15 cbr 1000 ------- 0 0.0 15.0 12 12
+ 0.235 0 3 cbr 1000 ------- 0 0.0 15.0 135 135
d 0.235 0 3 cbr 1000 ------- 0 0.0 15.0 135 135
+ 0.235 0 3 cbr 1000 ------- 0 0.0 15.0 136 136
d 0.235 0 3 cbr 1000 ------- 0 0.0 15.0 136 136
+ 0.235 0 3 cbr 1000 ------- 0 0.0 15.0 137 137
d 0.235 0 3 cbr 1000 ------- 0 0.0 15.0 137 137
+ 0.235 0 3 cbr 1000 ------- 0 0.0 15.0 138 138
d 0.235 0 3 cbr 1000 ------- 0 0.0 15.0 138 138
+ 0.235 0 3 cbr 1000 ------- 0 0.0 15.0 139 139
d 0.235 0 3 cbr 1000 ------- 0 0.0 15.0 139 139
- 0.236 0 3 cbr 1000 ------- 0 0.0 15.0 17 17
r 0.238 0 3 cbr 1000 ------- 0 0.0 15.0 15 15
+ 0.238 3 15 cbr 1000 ------- 0 0.0 15.0 15 15
- 0.238 3 15 cbr 1000 ------- 0 0.0 15.0 15 15
r 0.24 3 15 cbr 1000 ------- 0 0.0 15.0 13 13
+ 0.24 0 3 cbr 1000 ------- 0 0.0 15.0 140 140
+ 0.24 0 3 cbr 1000 ------- 0 0.0 15.0 141 141
d 0.24 0 3 cbr 1000 ------- 0 0.0 15.0 141 141
+ 0.24 0 3 cbr 1000 ------- 0 0.0 15.0 142 142
d 0.24 0 3 cbr 1000 ------- 0 0.0 15.0 142 142
+ 0.24 0 3 cbr 1000 ------- 0 0.0 15.0 143 143
d 0.24 0 3 cbr 1000 ------- 0 0.0 15.0 143 143
+ 0.24 0 3 cbr 1000 ------- 0 0.0 15.0 144 144
d 0.24 0 3 cbr 1000 ------- 0 0.0 15.0 144 144
- 0.244 0 3 cbr 1000 ------- 0 0.0 15.0 18 18
+ 0.245 0 3 cbr 1000 ------- 0 0.0 15.0 145 145
+ 0.245 0 3 cbr 1000 ------- 0 0.0 15.0 146 146
d 0.245 0 3 cbr 1000 ------- 0 0.0 15.0 146 146
+ 0.245 0 3 cbr 1000 ------- 0 0.0 15.0 147 147
d 0.245 0 3 cbr 1000 ------- 0 0.0 15.0 147 147
+ 0.245 0 3 cbr 1000 ------- 0 0.0 15.0 148 148
d 0.245 0 3 cbr 1000 ------- 0 0.0 15.0 148 148
+ 0.245 0 3 cbr 1000 ------- 0 0.0 15.0 149 149
d 0.245 0 3 cbr 1000 ------- 0 0.0 15.0 149 149
r 0.246 0 3 cbr 1000 ------- 0 0.0 15.0 16 16
+ 0.246 3 15 cbr 1000 ------- 0 0.0 15.0 16 16
- 0.246 3 15 cbr 1000 ------- 0 0.0 15.0 16 16
r 0.248 3 15 cbr 1000 ------- 0 0.0 15.0 14 14
+ 0.25 0 3 cbr 1000 ------- 0 0.0 15.0 150 150
d 0.25 0 3 cbr 1000 ------- 0 0.0 15.0 150 150
+ 0.25 0 3 cbr 1000 ------- 0 0.0 15.0 151 151
d 0.25 0 3 cbr 1000 ------- 0 0.0 15.0 151 151
+ 0.25 0 3 cbr 1000 ------- 0 0.0 15.0 152 152
d 0.25 0 3 cbr 1000 ------- 0 0.0 15.0 152 152
+ 0.25 0 3 cbr 1000 ------- 0 0.0 15.0 153 153
d 0.25 0 3 cbr 1000 ------- 0 0.0 15.0 153 153
+ 0.25 0 3 cbr 1000 ------- 0 0.0 15.0 154 154
d 0.25 0 3 cbr 1000 ------- 0 0.0 15.0 154 154
- 0.252 0 3 cbr 1000 ------- 0 0.0 15.0 19 19
r 0.254 0 3 cbr 1000 ------- 0 0.0 15.0 17 17
+ 0.254 3 15 cbr 1000 ------- 0 0.0 15.0 17 17
- 0.254 3 15 cbr 1000 ------- 0 0.0 15.0 17 17
+ 0.255 0 3 cbr 1000 ------- 0 0.0 15.0 155 155
+ 0.255 0 3 cbr 1000 ------- 0 0.0 15.0 156 156
d 0.255 0 3 cbr 1000 ------- 0 0.0 15.0 156 156
+ 0.255 0 3 cbr 1000 ------- 0 0.0 15.0 157 157
d 0.255 0 3 cbr 1000 ------- 0 0.0 15.0 157 157
+ 0.255 0 3 cbr 1000 ------- 0 0.0 15.0 158 158
d 0.255 0 3 cbr 1000 ------- 0 0.0 15.0 158 158
+ 0.255 0 3 cbr 1000 ------- 0 0.0 15.0 159 159
d 0.255 0 3 cbr 1000 ------- 0 0.0 15.0 159 159
r 0.256 3 15 cbr 1000 ------- 0 0.0 15.0 15 15
- 0.26 0 3 cbr 1000 ------- 0 0.0 15.0 20 20
+ 0.26 0 3 cbr 1000 ------- 0 0.0 15.0 160 160
+ 0.26 0 3 cbr 1000 ------- 0 0.0 15.0 161 161
d 0.26 0 3 cbr 1000 ------- 0 0.0 15.0 161 161
+ 0.26 0 3 cbr 1000 ------- 0 0.0 15.0 162 162
d 0.26 0 3 cbr 1000 ------- 0 0.0 15.0 162 162
+ 0.26 0 3 cbr 1000 ------- 0 0.0 15.0 163 163
d 0.26 0 3 cbr 1000 ------- 0 0.0 15.0 163 163
+ 0.26 0 3 cbr 1000 ------- 0 0.0 15.0 164 164
d 0.26 0 3 cbr 1000 ------- 0 0.0 15.0 164 164
r 0.262 0 3 cbr 1000 ------- 0 0.0 15.0 18 18
+ 0.262 3 15 cbr 1000 ------- 0 0.0 15.0 18 18
- 0.262 3 15 cbr 1000 ------- 0 0.0 15.0 18 18
r 0.264 3 15 cbr 1000 ------- 0 0.0 15.0 16 16
+ 0.265 0 3 cbr 1000 ------- 0 0.0 15.0 165 165
d 0.265 0 3 cbr 1000 ------- 0 0.0 15.0 165 165
+ 0.265 0 3 cbr 1000 ------- 0 0.0 15.0 166 166
d 0.265 0 3 cbr 1000 ------- 0 0.0 15.0 166 166
+ 0.265 0 3 cbr 1000 ------- 0 0.0 15.0 167 167
d 0.265 0 3 cbr 1000 ------- 0 0.0 15.0 167 167
+ 0.265 0 3 cbr 1000 ------- 0 0.0 15.0 168 168
d 0.265 0 3 cbr 1000 ------- 0 0.0 15.0 168 168
+ 0.265 0 3 cbr 1000 ------- 0 0.0 15.0 169 169
d 0.265 0 3 cbr 1000 ------- 0 0.0 15.0 169 169
- 0.268 0 3 cbr 1000 ------- 0 0.0 15.0 21 21
r 0.27 0 3 cbr 1000 ------- 0 0.0 15.0 19 19
+ 0.27 3 15 cbr 1000 ------- 0 0.0 15.0 19 19
- 0.27 3 15 cbr 1000 ------- 0 0.0 15.0 19 19
+ 0.27 0 3 cbr 1000 ------- 0 0.0 15.0 170 170
+ 0.27 0 3 cbr 1000 ------- 0 0.0 15.0 171 171
d 0.27 0 3 cbr 1000 ------- 0 0.0 15.0 171 171
+ 0.27 0 3 cbr 1000 ------- 0 0.0 15.0 172 172
d 0.27 0 3 cbr 1000 ------- 0 0.0 15.0 172 172
+ 0.27 0 3 cbr 1000 ------- 0 0.0 15.0 173 173
d 0.27 0 3 cbr 1000 ------- 0 0.0 15.0 173 173
+ 0.27 0 3 cbr 1000 ------- 0 0.0 15.0 174 174
d 0.27 0 3 cbr 1000 ------- 0 0.0 15.0 174 174
r 0.272 3 15 cbr 1000 ------- 0 0.0 15.0 17 17
+ 0.275 0 3 cbr 1000 ------- 0 0.0 15.0 175 175
d 0.275 0 3 cbr 1000 ------- 0 0.0 15.0 175 175
+ 0.275 0 3 cbr 1000 ------- 0 0.0 15.0 176 176
d 0.275 0 3 cbr 1000 ------- 0 0.0 15.0 176 176
+ 0.275 0 3 cbr 1000 ------- 0 0.0 15.0 177 177
d 0.275 0 3 cbr 1000 ------- 0 0.0 15.0 177 177
+ 0.275 0 3 cbr 1000 ------- 0 0.0 15.0 178 178
d 0.275 0 3 cbr 1000 ------- 0 0.0 15.0 178 178
+ 0.275 0 3 cbr 1000 ------- 0 0.0 15.0 179 179
d 0.275 0 3 cbr 1000 ------- 0 0.0 15.0 179 179
- 0.276 0 3 cbr 1000 ------- 0 0.0 15.0 22 22
r 0.278 0 3 cbr 1000 ------- 0 0.0 15.0 20 20
+ 0.278 3 15 cbr 1000 ------- 0 0.0 15.0 20 20
- 0.278 3 15 cbr 1000 ------- 0 0.0 15.0 20 20
r 0.28 3 15 cbr 1000 ------- 0 0.0 15.0 18 18
+ 0.28 0 3 cbr 1000 ------- 0 0.0 15.0 180 180
+ 0.28 0 3 cbr 1000 ------- 0 0.0 15.0 181 181
d 0.28 0 3 cbr 1000 ------- 0 0.0 15.0 181 181
+ 0.28 0 3 cbr 1000 ------- 0 0.0 15.0 182 182
d 0.28 0 3 cbr 1000 ------- 0 0.0 15.0 182 182
+ 0.28 0 3 cbr 1000 ------- 0 0.0 15.0 183 183
d 0.28 0 3 cbr 1000 ------- 0 0.0 15.0 183 183
+ 0.28 0 3 cbr 1000 ------- 0 0.0 15.0 184 184
d 0.28 0 3 cbr 1000 ------- 0 0.0 15.0 184 184
- 0.284 0 3 cbr 1000 ------- 0 0.0 15.0 23 23
+ 0.285 0 3 cbr 1000 ------- 0 0.0 15.0 185 185
+ 0.285 0 3 cbr 1000 ------- 0 0.0 15.0 186 186
d 0.285 0 3 cbr 1000 ------- 0 0.0 15.0 186 186
+ 0.285 0 3 cbr 1000 ------- 0 0.0 15.0 187 187
d 0.285 0 3 cbr 1000 ------- 0 0.0 15.0 187 187
+ 0.285 0 3 cbr 1000 ------- 0 0.0 15.0 188 188
d 0.285 0 3 cbr 1000 ------- 0 0.0 15.0 188 188
+ 0.285 0 3 cbr 1000 ------- 0 0.0 15.0 189 189
d 0.285 0 3 cbr 1000 ------- 0 0.0 15.0 189 189
r 0.286 0 3 cbr 1000 ------- 0 0.0 15.0 21 21
+ 0.286 3 15 cbr 1000 ------- 0 0.0 15.0 21 21
- 0.286 3 15 cbr 1000 ------- 0 0.0 15.0 21 21
r 0.288 3 15 cbr 1000 ------- 0 0.0 15.0 19 19
+ 0.29 0 3 cbr 1000 ------- 0 0.0 15.0 190 190
d 0.29 0 3 cbr 1000 ------- 0 0.0 15.0 190 190
+ 0.29 0 3 cbr 1000 ------- 0 0.0 15.0 191 191
d 0.29 0 3 cbr 1000 ------- 0 0.0 15.0 191 191
+ 0.29 0 3 cbr 1000 ------- 0 0.0 15.0 192 192
d 0.29 0 3 cbr 1000 ------- 0 0.0 15.0 192 192
+ 0.29 0 3 cbr 1000 ------- 0 0.0 15.0 193 193
d 0.29 0 3 cbr 1000 ------- 0 0.0 15.0 193 193
+ 0.29 0 3 cbr 1000 ------- 0 0.0 15.0 194 194
d 0.29 0 3 cbr 1000 ------- 0 0.0 15.0 194 194
- 0.292 0 3 cbr 1000 ------- 0 0.0 15.0 24 24
r 0.294 0 3 cbr 1000 ------- 0 0.0 15.0 22 22
+ 0.294 3 15 cbr 1000 ------- 0 0.0 15.0 22 22
- 0.294 3 15 cbr 1000 ------- 0 0.0 15.0 22 22
+ 0.295 0 3 cbr 1000 ------- 0 0.0 15.0 195 195
+ 0.295 0 3 cbr 1000 ------- 0 0.0 15.0 196 196
d 0.295 0 3 cbr 1000 ------- 0 0.0 15.0 196 196
+ 0.295 0 3 cbr 1000 ------- 0 0.0 15.0 197 197
d 0.295 0 3 cbr 1000 ------- 0 0.0 15.0 197 197
+ 0.295 0 3 cbr 1000 ------- 0 0.0 15.0 198 198
d 0.295 0 3 cbr 1000 ------- 0 0.0 15.0 198 198
+ 0.295 0 3 cbr 1000 ------- 0 0.0 15.0 199 199
d 0.295 0 3 cbr 1000 ------- 0 0.0 15.0 199 199
r 0.296 3 15 cbr 1000 ------- 0 0.0 15.0 20 20
- 0.3 0 3 cbr 1000 ------- 0 0.0 15.0 25 25
+ 0.3 0 3 cbr 1000 ------- 0 0.0 15.0 200 200
+ 0.3 0 3 cbr 1000 ------- 0 0.0 15.0 201 201
d 0.3 0 3 cbr 1000 ------- 0 0.0 15.0 201 201
+ 0.3 0 3 cbr 1000 ------- 0 0.0 15.0 202 202
d 0.3 0 3 cbr 1000 ------- 0 0.0 15.0 202 202
+ 0.3 0 3 cbr 1000 ------- 0 0.0 15.0 203 203
d 0.3 0 3 cbr 1000 ------- 0 0.0 15.0 203 203
+ 0.3 0 3 cbr 1000 ------- 0 0.0 15.0 204 204
d 0.3 0 3 cbr 1000 ------- 0 0.0 15.0 204 204
r 0.302 0 3 cbr 1000 ------- 0 0.0 15.0 23 23
+ 0.302 3 15 cbr 1000 ------- 0 0.0 15.0 23 23
- 0.302 3 15 cbr 1000 ------- 0 0.0 15.0 23 23
r 0.304 3 15 cbr 1000 ------- 0 0.0 15.0 21 21
+ 0.305 0 3 cbr 1000 ------- 0 0.0 15.0 205 205
d 0.305 0 3 cbr 1000 ------- 0 0.0 15.0 205 205
+ 0.305 0 3 cbr 1000 ------- 0 0.0 15.0 206 206
d 0.305 0 3 cbr 1000 ------- 0 0.0 15.0 206 206
+ 0.305 0 3 cbr 1000 ------- 0 0.0 15.0 207 207
d 0.305 0 3 cbr 1000 ------- 0 0.0 15.0 207 207
+ 0.305 0 3 cbr 1000 ------- 0 0.0 15.0 208 208
d 0.305 0 3 cbr 1000 ------- 0 0.0 15.0 208 208
+ 0.305 0 3 cbr 1000 ------- 0 0.0 15.0 209 209
d 0.305 0 3 cbr 1000 ------- 0 0.0 15.0 209 209
- 0.308 0 3 cbr 1000 ------- 0 0.0 15.0 26 26
r 0.31 0 3 cbr 1000 ------- 0 0.0 15.0 24 24
+ 0.31 3 15 cbr 1000 ------- 0 0.0 15.0 24 24
- 0.31 3 15 cbr 1000 ------- 0 0.0 15.0 24 24
+ 0.31 0 3 cbr 1000 ------- 0 0.0 15.0 210 210
+ 0.31 0 3 cbr 1000 ------- 0 0.0 15.0 211 211
d 0.31 0 3 cbr 1000 ------- 0 0.0 15.0 211 211
+ 0.31 0 3 cbr 1000 ------- 0 0.0 15.0 212 212
d 0.31 0 3 cbr 1000 ------- 0 0.0 15.0 212 212
+ 0.31 0 3 cbr 1000 ------- 0 0.0 15.0 213 213
d 0.31 0 3 cbr 1000 ------- 0 0.0 15.0 213 213
+ 0.31 0 3 cbr 1000 ------- 0 0.0 15.0 214 214
d 0.31 0 3 cbr 1000 ------- 0 0.0 15.0 214 214
r 0.312 3 15 cbr 1000 ------- 0 0.0 15.0 22 22
+ 0.315 0 3 cbr 1000 ------- 0 0.0 15.0 215 215
d 0.315 0 3 cbr 1000 ------- 0 0.0 15.0 215 215
+ 0.315 0 3 cbr 1000 ------- 0 0.0 15.0 216 216
d 0.315 0 3 cbr 1000 ------- 0 0.0 15.0 216 216
+ 0.315 0 3 cbr 1000 ------- 0 0.0 15.0 217 217
d 0.315 0 3 cbr 1000 ------- 0 0.0 15.0 217 217
+ 0.315 0 3 cbr 1000 ------- 0 0.0 15.0 218 218
d 0.315 0 3 cbr 1000 ------- 0 0.0 15.0 218 218
+ 0.315 0 3 cbr 1000 ------- 0 0.0 15.0 219 219
d 0.315 0 3 cbr 1000 ------- 0 0.0 15.0 219 219
- 0.316 0 3 cbr 1000 ------- 0 0.0 15.0 27 27
r 0.318 0 3 cbr 1000 ------- 0 0.0 15.0 25 25
+ 0.318 3 15 cbr 1000 ------- 0 0.0 15.0 25 25
- 0.318 3 15 cbr 1000 ------- 0 0.0 15.0 25 25
r 0.32 3 15 cbr 1000 ------- 0 0.0 15.0 23 23
+ 0.32 0 3 cbr 1000 ------- 0 0.0 15.0 220 220
+ 0.32 0 3 cbr 1000 ------- 0 0.0 15.0 221 221
d 0.32 0 3 cbr 1000 ------- 0 0.0 15.0 221 221
+ 0.32 0 3 cbr 1000 ------- 0 0.0 15.0 222 222
d 0.32 0 3 cbr 1000 ------- 0 0.0 15.0 222 222
+ 0.32 0 3 cbr 1000 ------- 0 0.0 15.0 223 223
d 0.32 0 3 cbr 1000 ------- 0 0.0 15.0 223 223
+ 0.32 0 3 cbr 1000 ------- 0 0.0 15.0 224 224
d 0.32 0 3 cbr 1000 ------- 0 0.0 15.0 224 224
- 0.324 0 3 cbr 1000 ------- 0 0.0 15.0 28 28
+ 0.325 0 3 cbr 1000 ------- 0 0.0 15.0 225 225
+ 0.325 0 3 cbr 1000 ------- 0 0.0 15.0 226 226
d 0.325 0 3 cbr 1000 ------- 0 0.0 15.0 226 226
+ 0.325 0 3 cbr 1000 ------- 0 0.0 15.0 227 227
d 0.325 0 3 cbr 1000 ------- 0 0.0 15.0 227 227
+ 0.325 0 3 cbr 1000 ------- 0 0.0 15.0 228 228
d 0.325 0 3 cbr 1000 ------- 0 0.0 15.0 228 228
+ 0.325 0 3 cbr 1000 ------- 0 0.0 15.0 229 229
d 0.325 0 3 cbr 1000 ------- 0 0.0 15.0 229 229
r 0.326 0 3 cbr 1000 ------- 0 0.0 15.0 26 26
+ 0.326 3 15 cbr 1000 ------- 0 0.0 15.0 26 26
- 0.326 3 15 cbr 1000 ------- 0 0.0 15.0 26 26
r 0.328 3 15 cbr 1000 ------- 0 0.0 15.0 24 24
+ 0.33 0 3 cbr 1000 ------- 0 0.0 15.0 230 230
d 0.33 0 3 cbr 1000 ------- 0 0.0 15.0 230 230
+ 0.33 0 3 cbr 1000 ------- 0 0.0 15.0 231 231
d 0.33 0 3 cbr 1000 ------- 0 0.0 15.0 231 231
+ 0.33 0 3 cbr 1000 ------- 0 0.0 15.0 232 232
d 0.33 0 3 cbr 1000 ------- 0 0.0 15.0 232 232
+ 0.33 0 3 cbr 1000 ------- 0 0.0 15.0 233 233
d 0.33 0 3 cbr 1000 ------- 0 0.0 15.0 233 233
+ 0.33 0 3 cbr 1000 ------- 0 0.0 15.0 234 234
d 0.33 0 3 cbr 1000 ------- 0 0.0 15.0 234 234
- 0.332 0 3 cbr 1000 ------- 0 0.0 15.0 29 29
r 0.334 0 3 cbr 1000 ------- 0 0.0 15.0 27 27
+ 0.334 3 15 cbr 1000 ------- 0 0.0 15.0 27 27
- 0.334 3 15 cbr 1000 ------- 0 0.0 15.0 27 27
+ 0.335 0 3 cbr 1000 ------- 0 0.0 15.0 235 235
+ 0.335 0 3 cbr 1000 ------- 0 0.0 15.0 236 236
d 0.335 0 3 cbr 1000 ------- 0 0.0 15.0 236 236
+ 0.335 0 3 cbr 1000 ------- 0 0.0 15.0 237 237
d 0.335 0 3 cbr 1000 ------- 0 0.0 15.0 237 237
+ 0.335 0 3 cbr 1000 ------- 0 0.0 15.0 238 238
d 0.335 0 3 cbr 1000 ------- 0 0.0 15.0 238 238
+ 0.335 0 3 cbr 1000 ------- 0 0.0 15.0 239 239
d 0.335 0 3 cbr 1000 ------- 0 0.0 15.0 239 239
r 0.336 3 15 cbr 1000 ------- 0 0.0 15.0 25 25
- 0.34 0 3 cbr 1000 ------- 0 0.0 15.0 30 30
+ 0.34 0 3 cbr 1000 ------- 0 0.0 15.0 240 240
+ 0.34 0 3 cbr 1000 ------- 0 0.0 15.0 241 241
d 0.34 0 3 cbr 1000 ------- 0 0.0 15.0 241 241
+ 0.34 0 3 cbr 1000 ------- 0 0.0 15.0 242 242
d 0.34 0 3 cbr 1000 ------- 0 0.0 15.0 242 242
+ 0.34 0 3 cbr 1000 ------- 0 0.0 15.0 243 243
d 0.34 0 3 cbr 1000 ------- 0 0.0 15.0 243 243
+ 0.34 0 3 cbr 1000 ------- 0 0.0 15.0 244 244
d 0.34 0 3 cbr 1000 ------- 0 0.0 15.0 244 244
r 0.342 0 3 cbr 1000 ------- 0 0.0 15.0 28 28
+ 0.342 3 15 cbr 1000 ------- 0 0.0 15.0 28 28
- 0.342 3 15 cbr 1000 ------- 0 0.0 15.0 28 28
r 0.344 3 15 cbr 1000 ------- 0 0.0 15.0 26 26
+ 0.345 0 3 cbr 1000 ------- 0 0.0 15.0 245 245
d 0.345 0 3 cbr 1000 ------- 0 0.0 15.0 245 245
+ 0.345 0 3 cbr 1000 ------- 0 0.0 15.0 246 246
d 0.345 0 3 cbr 1000 ------- 0 0.0 15.0 246 246
+ 0.345 0 3 cbr 1000 ------- 0 0.0 15.0 247 247
d 0.345 0 3 cbr 1000 ------- 0 0.0 15.0 247 247
+ 0.345 0 3 cbr 1000 ------- 0 0.0 15.0 248 248
d 0.345 0 3 cbr 1000 ------- 0 0.0 15.0 248 248
+ 0.345 0 3 cbr 1000 ------- 0 0.0 15.0 249 249
d 0.345 0 3 cbr 1000 ------- 0 0.0 15.0 249 249
- 0.348 0 3 cbr 1000 ------- 0 0.0 15.0 31 31
r 0.35 0 3 cbr 1000 ------- 0 0.0 15.0 29 29
+ 0.35 3 15 cbr 1000 ------- 0 0.0 15.0 29 29
- 0.35 3 15 cbr 1000 ------- 0 0.0 15.0 29 29
+ 0.35 0 3 cbr 1000 ------- 0 0.0 15.0 250 250
+ 0.35 0 3 cbr 1000 ------- 0 0.0 15.0 251 251
d 0.35 0 3 cbr 1000 ------- 0 0.0 15.0 251 251
+ 0.35 0 3 cbr 1000 ------- 0 0.0 15.0 252 252
d 0.35 0 3 cbr 1000 ------- 0 0.0 15.0 252 252
+ 0.35 0 3 cbr 1000 ------- 0 0.0 15.0 253 253
d 0.35 0 3 cbr 1000 ------- 0 0.0 15.0 253 253
+ 0.35 0 3 cbr 1000 ------- 0 0.0 15.0 254 254
d 0.35 0 3 cbr 1000 ------- 0 0.0 15.0 254 254
r 0.352 3 15 cbr 1000 ------- 0 0.0 15.0 27 27
+ 0.355 0 3 cbr 1000 ------- 0 0.0 15.0 255 255
d 0.355 0 3 cbr 1000 ------- 0 0.0 15.0 255 255
+ 0.355 0 3 cbr 1000 ------- 0 0.0 15.0 256 256
d 0.355 0 3 cbr 1000 ------- 0 0.0 15.0 256 256
+ 0.355 0 3 cbr 1000 ------- 0 0.0 15.0 257 257
d 0.355 0 3 cbr 1000 ------- 0 0.0 15.0 257 257
+ 0.355 0 3 cbr 1000 ------- 0 0.0 15.0 258 258
d 0.355 0 3 cbr 1000 ------- 0 0.0 15.0 258 258
+ 0.355 0 3 cbr 1000 ------- 0 0.0 15.0 259 259
d 0.355 0 3 cbr 1000 ------- 0 0.0 15.0 259 259
- 0.356 0 3 cbr 1000 ------- 0 0.0 15.0 32 32
r 0.358 0 3 cbr 1000 ------- 0 0.0 15.0 30 30
+ 0.358 3 15 cbr 1000 ------- 0 0.0 15.0 30 30
- 0.358 3 15 cbr 1000 ------- 0 0.0 15.0 30 30
r 0.36 3 15 cbr 1000 ------- 0 0.0 15.0 28 28
+ 0.36 0 3 cbr 1000 ------- 0 0.0 15.0 260 260
+ 0.36 0 3 cbr 1000 ------- 0 0.0 15.0 261 261
d 0.36 0 3 cbr 1000 ------- 0 0.0 15.0 261 261
+ 0.36 0 3 cbr 1000 ------- 0 0.0 15.0 262 262
d 0.36 0 3 cbr 1000 ------- 0 0.0 15.0 262 262
+ 0.36 0 3 cbr 1000 ------- 0 0.0 15.0 263 263
d 0.36 0 3 cbr 1000 ------- 0 0.0 15.0 263 263
+ 0.36 0 3 cbr 1000 ------- 0 0.0 15.0 264 264
d 0.36 0 3 cbr 1000 ------- 0 0.0 15.0 264 264
- 0.364 0 3 cbr 1000 ------- 0 0.0 15.0 33 33
+ 0.365 0 3 cbr 1000 ------- 0 0.0 15.0 265 265
+ 0.365 0 3 cbr 1000 ------- 0 0.0 15.0 266 266
d 0.365 0 3 cbr 1000 ------- 0 0.0 15.0 266 266
+ 0.365 0 3 cbr 1000 ------- 0 0.0 15.0 267 267
d 0.365 0 3 cbr 1000 ------- 0 0.0 15.0 267 267
+ 0.365 0 3 cbr 1000 ------- 0 0.0 15.0 268 268
d 0.365 0 3 cbr 1000 ------- 0 0.0 15.0 268 268
+ 0.365 0 3 cbr 1000 ------- 0 0.0 15.0 269 269
d 0.365 0 3 cbr 1000 ------- 0 0.0 15.0 269 269
r 0.366 0 3 cbr 1000 ------- 0 0.0 15.0 31 31
+ 0.366 3 15 cbr 1000 ------- 0 0.0 15.0 31 31
- 0.366 3 15 cbr 1000 ------- 0 0.0 15.0 31 31
r 0.368 3 15 cbr 1000 ------- 0 0.0 15.0 29 29
+ 0.37 0 3 cbr 1000 ------- 0 0.0 15.0 270 270
d 0.37 0 3 cbr 1000 ------- 0 0.0 15.0 270 270
+ 0.37 0 3 cbr 1000 ------- 0 0.0 15.0 271 271
d 0.37 0 3 cbr 1000 ------- 0 0.0 15.0 271 271
+ 0.37 0 3 cbr 1000 ------- 0 0.0 15.0 272 272
d 0.37 0 3 cbr 1000 ------- 0 0.0 15.0 272 272
+ 0.37 0 3 cbr 1000 ------- 0 0.0 15.0 273 273
d 0.37 0 3 cbr 1000 ------- 0 0.0 15.0 273 273
+ 0.37 0 3 cbr 1000 ------- 0 0.0 15.0 274 274
d 0.37 0 3 cbr 1000 ------- 0 0.0 15.0 274 274
- 0.372 0 3 cbr 1000 ------- 0 0.0 15.0 34 34
r 0.374 0 3 cbr 1000 ------- 0 0.0 15.0 32 32
+ 0.374 3 15 cbr 1000 ------- 0 0.0 15.0 32 32
- 0.374 3 15 cbr 1000 ------- 0 0.0 15.0 32 32
+ 0.375 0 3 cbr 1000 ------- 0 0.0 15.0 275 275
+ 0.375 0 3 cbr 1000 ------- 0 0.0 15.0 276 276
d 0.375 0 3 cbr 1000 ------- 0 0.0 15.0 276 276
+ 0.375 0 3 cbr 1000 ------- 0 0.0 15.0 277 277
d 0.375 0 3 cbr 1000 ------- 0 0.0 15.0 277 277
+ 0.375 0 3 cbr 1000 ------- 0 0.0 15.0 278 278
d 0.375 0 3 cbr 1000 ------- 0 0.0 15.0 278 278
+ 0.375 0 3 cbr 1000 ------- 0 0.0 15.0 279 279
d 0.375 0 3 cbr 1000 ------- 0 0.0 15.0 279 279
r 0.376 3 15 cbr 1000 ------- 0 0.0 15.0 30 30
- 0.38 0 3 cbr 1000 ------- 0 0.0 15.0 35 35
+ 0.38 0 3 cbr 1000 ------- 0 0.0 15.0 280 280
+ 0.38 0 3 cbr 1000 ------- 0 0.0 15.0 281 281